 DBCSR| Multiplication driver                                               BLAS
 DBCSR| Multrec recursion limit                                              512
 DBCSR| Multiplication stack size                                           1000
 DBCSR| Maximum elements for images                                    UNLIMITED
 DBCSR| Multiplicative factor virtual images                                   1
 DBCSR| Multiplication size stacks                                             3
 DBCSR| Number of 3D layers                                               SINGLE
 DBCSR| Use MPI memory allocation                                              T
 DBCSR| Use RMA algorithm                                                      F
 DBCSR| Use Communication thread                                               T
 DBCSR| Communication thread load                                             87


  **** **** ******  **  PROGRAM STARTED AT               2018-10-09 08:35:40.583
 ***** ** ***  *** **   PROGRAM STARTED ON                                  g013
 **    ****   ******    PROGRAM STARTED BY                                 macer
 ***** **    ** ** **   PROGRAM PROCESS ID                                  1921
  **** **  *******  **  PROGRAM STARTED IN    /home/macer/CuOH2_CO2_folder/4_coo

 CP2K| version string:                                          CP2K version 5.1
 CP2K| source code revision number:                                    svn:18091
 CP2K| cp2kflags: libint fftw3 pexsi parallel mpi3 scalapack libderiv_max_am1=5 
 CP2K|            libint_max_am=6
 CP2K| is freely available from                            https://www.cp2k.org/
 CP2K| Program compiled at                          Thu Jul 5 10:57:58 CEST 2018
 CP2K| Program compiled on                                                  g005
 CP2K| Program compiled for                  linux-rhel7-x86_S6g1_Mellanox-intel
 CP2K| Data directory path    /dev/shm/scitasbuild/spack-stage/spack-stage-Kdd_n
 CP2K| Input file name                                                  CP2K.inp
 
 GLOBAL| Force Environment number                                              1
 GLOBAL| Basis set file name                                      ./BASIS_MOLOPT
 GLOBAL| Potential file name                                    ./GTH_POTENTIALS
 GLOBAL| MM Potential file name                                     MM_POTENTIAL
 GLOBAL| Coordinate file name                                      __STD_INPUT__
 GLOBAL| Method name                                                        CP2K
 GLOBAL| Project name                                                       cp2k
 GLOBAL| Preferred FFT library                                             FFTW3
 GLOBAL| Preferred diagonalization lib.                                       SL
 GLOBAL| Run type                                                         ENERGY
 GLOBAL| All-to-all communication in single precision                          F
 GLOBAL| FFTs using library dependent lengths                                  F
 GLOBAL| Global print level                                               MEDIUM
 GLOBAL| Total number of message passing processes                            49
 GLOBAL| Number of threads for this process                                    1
 GLOBAL| This output is from process                                           0
 GLOBAL| CPU model name :  Intel(R) Xeon(R) Gold 6132 CPU @ 2.60GHz

 MEMORY| system memory details [Kb]
 MEMORY|                        rank 0           min           max       average
 MEMORY| MemTotal            197738988     197738988     197738988     197738988
 MEMORY| MemFree             178068116     178068116     179598180     178817778
 MEMORY| Buffers                  1892          1652          1892          1774
 MEMORY| Cached                 248740        235920        248740        242460
 MEMORY| Slab                  3452260       2391584       3452260       2932745
 MEMORY| SReclaimable          1369688        962464       1369688       1170231
 MEMORY| MemLikelyFree       179688436     179688436     180798216     180232244


 *** Fundamental physical constants (SI units) ***

 *** Literature: B. J. Mohr and B. N. Taylor,
 ***             CODATA recommended values of the fundamental physical
 ***             constants: 2006, Web Version 5.1
 ***             http://physics.nist.gov/constants

 Speed of light in vacuum [m/s]                             2.99792458000000E+08
 Magnetic constant or permeability of vacuum [N/A**2]       1.25663706143592E-06
 Electric constant or permittivity of vacuum [F/m]          8.85418781762039E-12
 Planck constant (h) [J*s]                                  6.62606896000000E-34
 Planck constant (h-bar) [J*s]                              1.05457162825177E-34
 Elementary charge [C]                                      1.60217648700000E-19
 Electron mass [kg]                                         9.10938215000000E-31
 Electron g factor [ ]                                     -2.00231930436220E+00
 Proton mass [kg]                                           1.67262163700000E-27
 Fine-structure constant                                    7.29735253760000E-03
 Rydberg constant [1/m]                                     1.09737315685270E+07
 Avogadro constant [1/mol]                                  6.02214179000000E+23
 Boltzmann constant [J/K]                                   1.38065040000000E-23
 Atomic mass unit [kg]                                      1.66053878200000E-27
 Bohr radius [m]                                            5.29177208590000E-11

 *** Conversion factors ***

 [u] -> [a.u.]                                              1.82288848426455E+03
 [Angstrom] -> [Bohr] = [a.u.]                              1.88972613288564E+00
 [a.u.] = [Bohr] -> [Angstrom]                              5.29177208590000E-01
 [a.u.] -> [s]                                              2.41888432650478E-17
 [a.u.] -> [fs]                                             2.41888432650478E-02
 [a.u.] -> [J]                                              4.35974393937059E-18
 [a.u.] -> [N]                                              8.23872205491840E-08
 [a.u.] -> [K]                                              3.15774647902944E+05
 [a.u.] -> [kJ/mol]                                         2.62549961709828E+03
 [a.u.] -> [kcal/mol]                                       6.27509468713739E+02
 [a.u.] -> [Pa]                                             2.94210107994716E+13
 [a.u.] -> [bar]                                            2.94210107994716E+08
 [a.u.] -> [atm]                                            2.90362800883016E+08
 [a.u.] -> [eV]                                             2.72113838565563E+01
 [a.u.] -> [Hz]                                             6.57968392072181E+15
 [a.u.] -> [1/cm] (wave numbers)                            2.19474631370540E+05
 [a.u./Bohr**2] -> [1/cm]                                   5.14048714338585E+03
 

 CELL_TOP| Volume [angstrom^3]:                                         3375.000
 CELL_TOP| Vector a [angstrom    15.000     0.000     0.000    |a| =      15.000
 CELL_TOP| Vector b [angstrom     0.000    15.000     0.000    |b| =      15.000
 CELL_TOP| Vector c [angstrom     0.000     0.000    15.000    |c| =      15.000
 CELL_TOP| Angle (b,c), alpha [degree]:                                   90.000
 CELL_TOP| Angle (a,c), beta  [degree]:                                   90.000
 CELL_TOP| Angle (a,b), gamma [degree]:                                   90.000
 CELL_TOP| Numerically orthorhombic:                                         YES
 
 GENERATE|  Preliminary Number of Bonds generated:                             0
 GENERATE|  Achieved consistency in connectivity generation.

 CELL| Volume [angstrom^3]:                                             3375.000
 CELL| Vector a [angstrom]:      15.000     0.000     0.000    |a| =      15.000
 CELL| Vector b [angstrom]:       0.000    15.000     0.000    |b| =      15.000
 CELL| Vector c [angstrom]:       0.000     0.000    15.000    |c| =      15.000
 CELL| Angle (b,c), alpha [degree]:                                       90.000
 CELL| Angle (a,c), beta  [degree]:                                       90.000
 CELL| Angle (a,b), gamma [degree]:                                       90.000
 CELL| Numerically orthorhombic:                                             YES

 CELL_REF| Volume [angstrom^3]:                                         3375.000
 CELL_REF| Vector a [angstrom    15.000     0.000     0.000    |a| =      15.000
 CELL_REF| Vector b [angstrom     0.000    15.000     0.000    |b| =      15.000
 CELL_REF| Vector c [angstrom     0.000     0.000    15.000    |c| =      15.000
 CELL_REF| Angle (b,c), alpha [degree]:                                   90.000
 CELL_REF| Angle (a,c), beta  [degree]:                                   90.000
 CELL_REF| Angle (a,b), gamma [degree]:                                   90.000
 CELL_REF| Numerically orthorhombic:                                         YES

 *******************************************************************************
 *******************************************************************************
 **                                                                           **
 **     #####                         ##              ##                      **
 **    ##   ##            ##          ##              ##                      **
 **   ##     ##                       ##            ######                    **
 **   ##     ##  ##   ##  ##   #####  ##  ##   ####   ##    #####    #####    **
 **   ##     ##  ##   ##  ##  ##      ## ##   ##      ##   ##   ##  ##   ##   **
 **   ##  ## ##  ##   ##  ##  ##      ####     ###    ##   ######   ######    **
 **    ##  ###   ##   ##  ##  ##      ## ##      ##   ##   ##       ##        **
 **     #######   #####   ##   #####  ##  ##  ####    ##    #####   ##        **
 **           ##                                                    ##        **
 **                                                                           **
 **                                                ... make the atoms dance   **
 **                                                                           **
 **            Copyright (C) by CP2K developers group (2000 - 2017)           **
 **                                                                           **
 *******************************************************************************

 DFT| Spin unrestricted (spin-polarized) Kohn-Sham calculation               UKS
 DFT| Multiplicity                                                             1
 DFT| Number of spin states                                                    2
 DFT| Charge                                                                   0
 DFT| Self-interaction correction (SIC)                                       NO
 DFT| Cutoffs: density                                              1.000000E-10
 DFT|          gradient                                             1.000000E-10
 DFT|          tau                                                  1.000000E-10
 DFT|          cutoff_smoothing_range                               0.000000E+00
 DFT| XC density smoothing                                                  NONE
 DFT| XC derivatives                                                          PW
 FUNCTIONAL| ROUTINE=NEW
 FUNCTIONAL| PBE:
 FUNCTIONAL| J.P.Perdew, K.Burke, M.Ernzerhof, Phys. Rev. Letter, vol. 77, n 18,
 FUNCTIONAL|  pp. 3865-3868, (1996){spin polarized}                             
 vdW POTENTIAL|                                                   Pair Potential
 vdW POTENTIAL|          DFT-D3 (Version 3.1)
 vdW POTENTIAL|          Potential Form: S. Grimme et al, JCP 132: 154104 (2010)
 vdW POTENTIAL|          BJ Damping: S. Grimme et al, JCC 32: 1456 (2011)
 vdW POTENTIAL|          Cutoff Radius [Bohr]:                             20.00
 vdW POTENTIAL|          s6 Scaling Factor:                               1.0000
 vdW POTENTIAL|          a1 Damping Factor:                               0.4289
 vdW POTENTIAL|          s8 Scaling Factor:                               0.7875
 vdW POTENTIAL|          a2 Damping Factor:                               4.4407
 vdW POTENTIAL|          Cutoff for CN calculation:                   0.1000E-05

 QS| Method:                                                                 GPW
 QS| Density plane wave grid type                        NON-SPHERICAL FULLSPACE
 QS| Number of grid levels:                                                    4
 QS| Density cutoff [a.u.]:                                                200.0
 QS| Multi grid cutoff [a.u.]: 1) grid level                               200.0
 QS|                           2) grid level                                66.7
 QS|                           3) grid level                                22.2
 QS|                           4) grid level                                 7.4
 QS| Grid level progression factor:                                          3.0
 QS| Relative density cutoff [a.u.]:                                        25.0
 QS| Consistent realspace mapping and integration 
 QS| Interaction thresholds: eps_pgf_orb:                                1.0E-05
 QS|                         eps_filter_matrix:                          0.0E+00
 QS|                         eps_core_charge:                            1.0E-12
 QS|                         eps_rho_gspace:                             1.0E-10
 QS|                         eps_rho_rspace:                             1.0E-10
 QS|                         eps_gvg_rspace:                             1.0E-05
 QS|                         eps_ppl:                                    1.0E-02
 QS|                         eps_ppnl:                                   1.0E-07


 ATOMIC KIND INFORMATION

  1. Atomic kind: O                                     Number of atoms:       2

     Orbital Basis Set                                        DZVP-MOLOPT-SR-GTH

       Number of orbital shell sets:                                           1
       Number of orbital shells:                                               5
       Number of primitive Cartesian functions:                                5
       Number of Cartesian basis functions:                                   14
       Number of spherical basis functions:                                   13
       Norm type:                                                              2

       Normalised Cartesian orbitals:

                        Set   Shell   Orbital            Exponent    Coefficient

                          1       1    2s               10.389228       0.396646
                                                         3.849621       0.208811
                                                         1.388401      -0.301641
                                                         0.496955      -0.274061
                                                         0.162492      -0.033677

                          1       2    3s               10.389228       0.303673
                                                         3.849621       0.240943
                                                         1.388401      -0.313066
                                                         0.496955      -0.043055
                                                         0.162492       0.213991

                          1       3    3px              10.389228      -1.530415
                                                         3.849621      -1.371928
                                                         1.388401      -0.761951
                                                         0.496955      -0.253695
                                                         0.162492      -0.035541
                          1       3    3py              10.389228      -1.530415
                                                         3.849621      -1.371928
                                                         1.388401      -0.761951
                                                         0.496955      -0.253695
                                                         0.162492      -0.035541
                          1       3    3pz              10.389228      -1.530415
                                                         3.849621      -1.371928
                                                         1.388401      -0.761951
                                                         0.496955      -0.253695
                                                         0.162492      -0.035541

                          1       4    4px              10.389228      -0.565392
                                                         3.849621      -0.038231
                                                         1.388401      -0.382373
                                                         0.496955       0.179070
                                                         0.162492       0.122714
                          1       4    4py              10.389228      -0.565392
                                                         3.849621      -0.038231
                                                         1.388401      -0.382373
                                                         0.496955       0.179070
                                                         0.162492       0.122714
                          1       4    4pz              10.389228      -0.565392
                                                         3.849621      -0.038231
                                                         1.388401      -0.382373
                                                         0.496955       0.179070
                                                         0.162492       0.122714

                          1       5    4dx2             10.389228       1.867377
                                                         3.849621       0.670994
                                                         1.388401       1.353441
                                                         0.496955       0.273538
                                                         0.162492       0.006620
                          1       5    4dxy             10.389228       3.234392
                                                         3.849621       1.162195
                                                         1.388401       2.344229
                                                         0.496955       0.473781
                                                         0.162492       0.011466
                          1       5    4dxz             10.389228       3.234392
                                                         3.849621       1.162195
                                                         1.388401       2.344229
                                                         0.496955       0.473781
                                                         0.162492       0.011466
                          1       5    4dy2             10.389228       1.867377
                                                         3.849621       0.670994
                                                         1.388401       1.353441
                                                         0.496955       0.273538
                                                         0.162492       0.006620
                          1       5    4dyz             10.389228       3.234392
                                                         3.849621       1.162195
                                                         1.388401       2.344229
                                                         0.496955       0.473781
                                                         0.162492       0.011466
                          1       5    4dz2             10.389228       1.867377
                                                         3.849621       0.670994
                                                         1.388401       1.353441
                                                         0.496955       0.273538
                                                         0.162492       0.006620

     GTH Potential information for                                       GTH-PBE

       Description:                       Goedecker-Teter-Hutter pseudopotential
                                           Goedecker et al., PRB 54, 1703 (1996)
                                          Hartwigsen et al., PRB 58, 3641 (1998)
                                                      Krack, TCA 114, 145 (2005)

       Gaussian exponent of the core charge distribution:               8.360253
       Electronic configuration (s p d ...):                               2   4

       Parameters of the local part of the GTH pseudopotential:

                          rloc        C1          C2          C3          C4
                        0.244554  -16.667215    2.487311

       Parameters of the non-local part of the GTH pseudopotential:

                   l      r(l)      h(i,j,l)

                   0    0.220956   18.337458
                   1    0.211332

  2. Atomic kind: C                                     Number of atoms:       1

     Orbital Basis Set                                        DZVP-MOLOPT-SR-GTH

       Number of orbital shell sets:                                           1
       Number of orbital shells:                                               5
       Number of primitive Cartesian functions:                                5
       Number of Cartesian basis functions:                                   14
       Number of spherical basis functions:                                   13
       Norm type:                                                              2

       Normalised Cartesian orbitals:

                        Set   Shell   Orbital            Exponent    Coefficient

                          1       1    2s                5.605331       0.322515
                                                         2.113016       0.213043
                                                         0.769911      -0.209686
                                                         0.348157      -0.219794
                                                         0.128212      -0.022789

                          1       2    3s                5.605331       0.552234
                                                         2.113016       0.082072
                                                         0.769911       0.007843
                                                         0.348157       0.136893
                                                         0.128212       0.074283

                          1       3    3px               5.605331      -0.703879
                                                         2.113016      -0.642521
                                                         0.769911      -0.374851
                                                         0.348157      -0.139743
                                                         0.128212      -0.027849
                          1       3    3py               5.605331      -0.703879
                                                         2.113016      -0.642521
                                                         0.769911      -0.374851
                                                         0.348157      -0.139743
                                                         0.128212      -0.027849
                          1       3    3pz               5.605331      -0.703879
                                                         2.113016      -0.642521
                                                         0.769911      -0.374851
                                                         0.348157      -0.139743
                                                         0.128212      -0.027849

                          1       4    4px               5.605331      -0.480376
                                                         2.113016      -0.552894
                                                         0.769911      -0.316145
                                                         0.348157       0.210505
                                                         0.128212       0.076095
                          1       4    4py               5.605331      -0.480376
                                                         2.113016      -0.552894
                                                         0.769911      -0.316145
                                                         0.348157       0.210505
                                                         0.128212       0.076095
                          1       4    4pz               5.605331      -0.480376
                                                         2.113016      -0.552894
                                                         0.769911      -0.316145
                                                         0.348157       0.210505
                                                         0.128212       0.076095

                          1       5    4dx2              5.605331       0.640026
                                                         2.113016       0.274300
                                                         0.769911       0.446711
                                                         0.348157       0.028674
                                                         0.128212       0.029790
                          1       5    4dxy              5.605331       1.108557
                                                         2.113016       0.475102
                                                         0.769911       0.773726
                                                         0.348157       0.049666
                                                         0.128212       0.051599
                          1       5    4dxz              5.605331       1.108557
                                                         2.113016       0.475102
                                                         0.769911       0.773726
                                                         0.348157       0.049666
                                                         0.128212       0.051599
                          1       5    4dy2              5.605331       0.640026
                                                         2.113016       0.274300
                                                         0.769911       0.446711
                                                         0.348157       0.028674
                                                         0.128212       0.029790
                          1       5    4dyz              5.605331       1.108557
                                                         2.113016       0.475102
                                                         0.769911       0.773726
                                                         0.348157       0.049666
                                                         0.128212       0.051599
                          1       5    4dz2              5.605331       0.640026
                                                         2.113016       0.274300
                                                         0.769911       0.446711
                                                         0.348157       0.028674
                                                         0.128212       0.029790

     GTH Potential information for                                       GTH-PBE

       Description:                       Goedecker-Teter-Hutter pseudopotential
                                           Goedecker et al., PRB 54, 1703 (1996)
                                          Hartwigsen et al., PRB 58, 3641 (1998)
                                                      Krack, TCA 114, 145 (2005)

       Gaussian exponent of the core charge distribution:               4.364419
       Electronic configuration (s p d ...):                               2   2

       Parameters of the local part of the GTH pseudopotential:

                          rloc        C1          C2          C3          C4
                        0.338471   -8.803674    1.339211

       Parameters of the non-local part of the GTH pseudopotential:

                   l      r(l)      h(i,j,l)

                   0    0.302576    9.622487
                   1    0.291507


 MOLECULE KIND INFORMATION


 All atoms are their own molecule, skipping detailed information


 TOTAL NUMBERS AND MAXIMUM NUMBERS

  Total number of            - Atomic kinds:                                   2
                             - Atoms:                                          3
                             - Shell sets:                                     3
                             - Shells:                                        15
                             - Primitive Cartesian functions:                 15
                             - Cartesian basis functions:                     42
                             - Spherical basis functions:                     39

  Maximum angular momentum of- Orbital basis functions:                        2
                             - Local part of the GTH pseudopotential:          2
                             - Non-local part of the GTH pseudopotential:      0


 MODULE QUICKSTEP:  ATOMIC COORDINATES IN angstrom

  Atom  Kind  Element       X           Y           Z          Z(eff)       Mass

       1     1 O    8    8.907019    7.266207    9.216671      6.00      15.9994
       2     2 C    6    8.790530    7.575855    8.090616      4.00      12.0107
       3     1 O    8    8.675184    7.888315    6.959126      6.00      15.9994




 SCF PARAMETERS         Density guess:                                    ATOMIC
                        --------------------------------------------------------
                        max_scf:                                              50
                        max_scf_history:                                       0
                        max_diis:                                              4
                        --------------------------------------------------------
                        eps_scf:                                        1.00E-06
                        eps_scf_history:                                0.00E+00
                        eps_diis:                                       1.00E-01
                        eps_eigval:                                     1.00E-05
                        --------------------------------------------------------
                        level_shift [a.u.]:                                 0.00
                        --------------------------------------------------------
                        Outer loop SCF in use 
                        No variables optimised in outer loop
                        eps_scf                                         1.00E-06
                        max_scf                                               10
                        No outer loop optimization
                        step_size                                       5.00E-01

 PW_GRID| Information for grid number                                          1
 PW_GRID| Grid distributed over                                    49 processors
 PW_GRID| Real space group dimensions                                    49    1
 PW_GRID| the grid is blocked:                                                NO
 PW_GRID| Cutoff [a.u.]                                                    200.0
 PW_GRID| spherical cutoff:                                                   NO
 PW_GRID|   Bounds   1            -96      95                Points:         192
 PW_GRID|   Bounds   2            -96      95                Points:         192
 PW_GRID|   Bounds   3            -96      95                Points:         192
 PW_GRID| Volume element (a.u.^3)  0.3218E-02     Volume (a.u.^3)     22775.6292
 PW_GRID| Grid span                                                    FULLSPACE
 PW_GRID|   Distribution                         Average         Max         Min
 PW_GRID|   G-Vectors                           144446.7      144576      144384
 PW_GRID|   G-Rays                                 752.3         753         752
 PW_GRID|   Real Space Points                   144446.7      147456      110592

 PW_GRID| Information for grid number                                          2
 PW_GRID| Grid distributed over                                    49 processors
 PW_GRID| Real space group dimensions                                    49    1
 PW_GRID| the grid is blocked:                                                NO
 PW_GRID| Cutoff [a.u.]                                                     66.7
 PW_GRID| spherical cutoff:                                                   NO
 PW_GRID|   Bounds   1            -54      53                Points:         108
 PW_GRID|   Bounds   2            -54      53                Points:         108
 PW_GRID|   Bounds   3            -54      53                Points:         108
 PW_GRID| Volume element (a.u.^3)  0.1808E-01     Volume (a.u.^3)     22775.6292
 PW_GRID| Grid span                                                    FULLSPACE
 PW_GRID|   Distribution                         Average         Max         Min
 PW_GRID|   G-Vectors                            25708.4       25812       25596
 PW_GRID|   G-Rays                                 238.0         239         237
 PW_GRID|   Real Space Points                    25708.4       34992       23328

 PW_GRID| Information for grid number                                          3
 PW_GRID| Grid distributed over                                    49 processors
 PW_GRID| Real space group dimensions                                    49    1
 PW_GRID| the grid is blocked:                                                NO
 PW_GRID| Cutoff [a.u.]                                                     22.2
 PW_GRID| spherical cutoff:                                                   NO
 PW_GRID|   Bounds   1            -32      31                Points:          64
 PW_GRID|   Bounds   2            -32      31                Points:          64
 PW_GRID|   Bounds   3            -32      31                Points:          64
 PW_GRID| Volume element (a.u.^3)  0.8688E-01     Volume (a.u.^3)     22775.6292
 PW_GRID| Grid span                                                    FULLSPACE
 PW_GRID|   Distribution                         Average         Max         Min
 PW_GRID|   G-Vectors                             5349.9        5440        5248
 PW_GRID|   G-Rays                                  83.6          85          82
 PW_GRID|   Real Space Points                     5349.9        8192        4096

 PW_GRID| Information for grid number                                          4
 PW_GRID| Grid distributed over                                    49 processors
 PW_GRID| Real space group dimensions                                     7    7
 PW_GRID| the grid is blocked:                                                NO
 PW_GRID| Cutoff [a.u.]                                                      7.4
 PW_GRID| spherical cutoff:                                                   NO
 PW_GRID|   Bounds   1            -18      17                Points:          36
 PW_GRID|   Bounds   2            -18      17                Points:          36
 PW_GRID|   Bounds   3            -18      17                Points:          36
 PW_GRID| Volume element (a.u.^3)  0.4882         Volume (a.u.^3)     22775.6292
 PW_GRID| Grid span                                                    FULLSPACE
 PW_GRID|   Distribution                         Average         Max         Min
 PW_GRID|   G-Vectors                              952.2        1008         900
 PW_GRID|   G-Rays                                  26.4          28          25
 PW_GRID|   Real Space Points                      952.2        1296         900

 POISSON| Solver                                                        PERIODIC
 POISSON| Periodicity                                                        XYZ

 RS_GRID| Information for grid number                                          1
 RS_GRID|   Bounds   1            -96      95                Points:         192
 RS_GRID|   Bounds   2            -96      95                Points:         192
 RS_GRID|   Bounds   3            -96      95                Points:         192
 RS_GRID| Real space distribution over                                  7 groups
 RS_GRID| Real space distribution along direction                              2
 RS_GRID| Border size                                                         24
 RS_GRID| Real space distribution over                                  7 groups
 RS_GRID| Real space distribution along direction                              3
 RS_GRID| Border size                                                         24
 RS_GRID|   Distribution                         Average         Max         Min
 RS_GRID|   Planes                                  75.4          76          75
 RS_GRID|   Distribution                         Average         Max         Min
 RS_GRID|   Planes                                  75.4          76          75

 RS_GRID| Information for grid number                                          2
 RS_GRID|   Bounds   1            -54      53                Points:         108
 RS_GRID|   Bounds   2            -54      53                Points:         108
 RS_GRID|   Bounds   3            -54      53                Points:         108
 RS_GRID| Real space distribution over                                  7 groups
 RS_GRID| Real space distribution along direction                              2
 RS_GRID| Border size                                                         25
 RS_GRID| Real space distribution over                                  7 groups
 RS_GRID| Real space distribution along direction                              3
 RS_GRID| Border size                                                         25
 RS_GRID|   Distribution                         Average         Max         Min
 RS_GRID|   Planes                                  65.4          66          65
 RS_GRID|   Distribution                         Average         Max         Min
 RS_GRID|   Planes                                  65.4          66          65

 RS_GRID| Information for grid number                                          3
 RS_GRID|   Bounds   1            -32      31                Points:          64
 RS_GRID|   Bounds   2            -32      31                Points:          64
 RS_GRID|   Bounds   3            -32      31                Points:          64
 RS_GRID| Real space fully replicated
 RS_GRID| Group size                                                           1

 RS_GRID| Information for grid number                                          4
 RS_GRID|   Bounds   1            -18      17                Points:          36
 RS_GRID|   Bounds   2            -18      17                Points:          36
 RS_GRID|   Bounds   3            -18      17                Points:          36
 RS_GRID| Real space fully replicated
 RS_GRID| Group size                                                           1

 DISTRIBUTION OF THE PARTICLES (ROWS)
              Process row      Number of particles         Number of matrix rows
                        0                        1                            -1
                        1                        1                            -1
                        2                        0                            -1
                        3                        1                            -1
                        4                        0                            -1
                        5                        0                            -1
                        6                        0                            -1
                      Sum                        3                            -1

 DISTRIBUTION OF THE PARTICLES (COLUMNS)
              Process col      Number of particles      Number of matrix columns
                        0                        1                            -1
                        1                        1                            -1
                        2                        0                            -1
                        3                        1                            -1
                        4                        0                            -1
                        5                        0                            -1
                        6                        0                            -1
                      Sum                        3                            -1

 DISTRIBUTION OF THE NEIGHBOR LISTS
              Total number of particle pairs:                                  6
              Total number of matrix elements:                              1014
              Average number of particle pairs:                                1
              Maximum number of particle pairs:                                1
              Average number of matrix element:                               21
              Maximum number of matrix elements:                             169


 DISTRIBUTION OF THE OVERLAP MATRIX
              Number  of non-zero blocks:                                      6
              Percentage non-zero blocks:                                 100.00
              Average number of blocks per CPU:                                1
              Maximum number of blocks per CPU:                                1
              Average number of matrix elements per CPU:                      22
              Maximum number of matrix elements per CPU:                     179

 Spin 1

 Number of electrons:                                                          8
 Number of occupied orbitals:                                                  8
 Number of molecular orbitals:                                                 8

 Spin 2

 Number of electrons:                                                          8
 Number of occupied orbitals:                                                  8
 Number of molecular orbitals:                                                 8

 Number of orbital functions:                                                 39
 Number of independent orbital functions:                                     39

 Extrapolation method: initial_guess

 Atomic guess: The first density matrix is obtained in terms of atomic orbitals
               and electronic configurations assigned to each atomic kind

 Guess for atomic kind: O

 Electronic structure
    Total number of core electrons                                          2.00
    Total number of valence electrons                                       6.00
    Total number of electrons                                               8.00
    Multiplicity                                                   not specified
    S   [  2.00] 2.00
    P      4.00
 

 *******************************************************************************
                  Iteration          Convergence                     Energy [au]
 *******************************************************************************
                          1         1.67054                     -14.836051221656
                          2         2.12470                     -14.897900780399
                          3        0.100150                     -15.654295189160
                          4        0.189307E-01                 -15.655828842238
                          5        0.464435E-02                 -15.655882433232
                          6        0.259395E-02                 -15.655884790195
                          7        0.516014E-04                 -15.655885857622
                          8        0.157374E-05                 -15.655885858066
                          9        0.783512E-06                 -15.655885858066

 Energy components [Hartree]           Total Energy ::          -15.655885858066
                                        Band Energy ::           -2.983129541149
                                     Kinetic Energy ::           11.754767937471
                                   Potential Energy ::          -27.410653795537
                                      Virial (-V/T) ::            2.331875366774
                                        Core Energy ::          -26.153524299614
                                          XC Energy ::           -3.157392735430
                                     Coulomb Energy ::           13.655031176977
                       Total Pseudopotential Energy ::          -37.943031004163
                       Local Pseudopotential Energy ::          -39.220423834999
                    Nonlocal Pseudopotential Energy ::            1.277392830837
                                        Confinement ::            0.347387670777

 Orbital energies  State     L     Occupation   Energy[a.u.]          Energy[eV]

                       1     0          2.000      -0.861523          -23.443221
 
                       1     1          4.000      -0.315021           -8.572160
 

 Total Electron Density at R=0:                                         0.000093

 Guess for atomic kind: C

 Electronic structure
    Total number of core electrons                                          2.00
    Total number of valence electrons                                       4.00
    Total number of electrons                                               6.00
    Multiplicity                                                   not specified
    S   [  2.00] 2.00
    P      2.00
 

 *******************************************************************************
                  Iteration          Convergence                     Energy [au]
 *******************************************************************************
                          1        0.457038                      -5.151105664215
                          2        0.157450                      -5.235617431356
                          3        0.130137E-02                  -5.246564342251
                          4        0.531061E-03                  -5.246565033610
                          5        0.605965E-04                  -5.246565167704
                          6        0.323545E-04                  -5.246565168968
                          7        0.365472E-07                  -5.246565169473

 Energy components [Hartree]           Total Energy ::           -5.246565169473
                                        Band Energy ::           -1.058732656762
                                     Kinetic Energy ::            3.518928154187
                                   Potential Energy ::           -8.765493323660
                                      Virial (-V/T) ::            2.490955467002
                                        Core Energy ::           -8.429377161979
                                          XC Energy ::           -1.450183339326
                                     Coulomb Energy ::            4.632995331832
                       Total Pseudopotential Energy ::          -11.978048785149
                       Local Pseudopotential Energy ::          -12.816738149676
                    Nonlocal Pseudopotential Energy ::            0.838689364526
                                        Confinement ::            0.297434689834

 Orbital energies  State     L     Occupation   Energy[a.u.]          Energy[eV]

                       1     0          2.000      -0.410911          -11.181458
 
                       1     1          2.000      -0.118455           -3.223332
 

 Total Electron Density at R=0:                                         0.001337

 Spin 1
 Re-scaling the density matrix to get the right number of electrons for spin 1
                  # Electrons              Trace(P)               Scaling factor
                            8                 8.000                        1.000

 Spin 2
 Re-scaling the density matrix to get the right number of electrons for spin 2
                  # Electrons              Trace(P)               Scaling factor
                            8                 8.000                        1.000


 SCF WAVEFUNCTION OPTIMIZATION

  ----------------------------------- OT ---------------------------------------
  Minimizer      : DIIS                : direct inversion
                                         in the iterative subspace
                                         using   7 DIIS vectors
                                         safer DIIS on
  Preconditioner : FULL_ALL            : diagonalization, state selective
  Precond_solver : DEFAULT
  stepsize       :    0.15000000                  energy_gap     :    0.08000000
  eps_taylor     :   0.10000E-15                  max_taylor     :             4
  ----------------------------------- OT ---------------------------------------

  Step     Update method      Time    Convergence         Total energy    Change
  ------------------------------------------------------------------------------
     1 OT DIIS     0.15E+00    0.7     0.11189186       -36.3957882486 -3.64E+01
     2 OT DIIS     0.15E+00    0.6     0.07015057       -37.4228660600 -1.03E+00
     3 OT DIIS     0.15E+00    0.7     0.09399711       -37.5157271552 -9.29E-02
     4 OT DIIS     0.15E+00    0.6     0.02394267       -37.7195850850 -2.04E-01
     5 OT DIIS     0.15E+00    0.6     0.01506212       -37.7415828833 -2.20E-02
     6 OT DIIS     0.15E+00    0.6     0.01299500       -37.7556467940 -1.41E-02
     7 OT DIIS     0.15E+00    0.6     0.00365024       -37.7609157226 -5.27E-03
     8 OT DIIS     0.15E+00    0.7     0.00192109       -37.7616703200 -7.55E-04
     9 OT DIIS     0.15E+00    0.7     0.00054429       -37.7618268015 -1.56E-04
    10 OT DIIS     0.15E+00    0.6     0.00016858       -37.7618553044 -2.85E-05
    11 OT DIIS     0.15E+00    0.6     0.00007120       -37.7618586795 -3.38E-06
    12 OT DIIS     0.15E+00    0.6     0.00003363       -37.7618593402 -6.61E-07
    13 OT DIIS     0.15E+00    0.6     0.00001964       -37.7618594593 -1.19E-07
    14 OT DIIS     0.15E+00    0.6     0.00001120       -37.7618594907 -3.15E-08
    15 OT DIIS     0.15E+00    0.6     0.00000408       -37.7618595053 -1.45E-08
    16 OT DIIS     0.15E+00    0.7     0.00000200       -37.7618595075 -2.25E-09
    17 OT DIIS     0.15E+00    0.7     0.00000101       -37.7618595080 -4.34E-10
    18 OT DIIS     0.15E+00    0.6     0.00000034       -37.7618595081 -1.28E-10

  *** SCF run converged in    18 steps ***


  Electronic density on regular grids:        -15.9999999992        0.0000000008
  Core density on regular grids:               15.9999999993       -0.0000000007
  Total charge density on r-space grids:        0.0000000001
  Total charge density g-space grids:           0.0000000001

  Overlap energy of the core charge distribution:               0.00000219101899
  Self energy of the core charge distribution:                -96.38742208476295
  Core Hamiltonian energy:                                     27.68947368366871
  Hartree energy:                                              39.58423828970722
  Exchange-correlation energy:                                 -8.64721503721850
  Dispersion energy:                                           -0.00093655050785

  Total energy:                                               -37.76185950809437

  outer SCF iter =    1 RMS gradient =   0.34E-06 energy =        -37.7618595081
  outer SCF loop converged in   1 iterations or   18 steps


  Integrated absolute spin density  :                               0.0000000000
  Ideal and single determinant S**2 :                    0.000000      -0.000000

 ENERGY| Total FORCE_EVAL ( QS ) energy (a.u.):              -37.761859508094368


 -------------------------------------------------------------------------------
 -                                                                             -
 -                                DBCSR STATISTICS                             -
 -                                                                             -
 -------------------------------------------------------------------------------
 COUNTER                                    TOTAL       BLAS       SMM       ACC
 flops     8 x     8 x     8               319488     100.0%      0.0%      0.0%
 flops    13 x    13 x     8               616512     100.0%      0.0%      0.0%
 flops     8 x     8 x    13               728832     100.0%      0.0%      0.0%
 flops    13 x     8 x     8               908544     100.0%      0.0%      0.0%
 flops    13 x     8 x    13              4015440     100.0%      0.0%      0.0%
 flops inhomo. stacks                           0       0.0%      0.0%      0.0%
 flops total                         6.588816E+06     100.0%      0.0%      0.0%
 flops max/rank                      2.792400E+06     100.0%      0.0%      0.0%
 matmuls inhomo. stacks                         0       0.0%      0.0%      0.0%
 matmuls total                               3009     100.0%      0.0%      0.0%
 number of processed stacks                  3009     100.0%      0.0%      0.0%
 average stack size                                     1.0       0.0       0.0
 marketing flops                     6.907050E+06
 -------------------------------------------------------------------------------
 # multiplications                            845
 max memory usage/rank             222.748672E+06
 # max total images/rank                        1
 # max 3D layers                                1
 # MPI messages exchanged                  496860
 MPI messages size (bytes):
  total size                        25.230192E+06
  min size                           0.000000E+00
  max size                           1.352000E+03
  average size                      50.779278E+00
 MPI breakdown and total messages size (bytes):
             size <=      128              470244                        0
       128 < size <=     8192               26616                 25230192
      8192 < size <=    32768                   0                        0
     32768 < size <=   131072                   0                        0
    131072 < size <=  4194304                   0                        0
   4194304 < size <= 16777216                   0                        0
  16777216 < size                               0                        0
 -------------------------------------------------------------------------------
 
 MEMORY| Estimated peak process memory [MiB]                                 213

 -------------------------------------------------------------------------------
 ----                             MULTIGRID INFO                            ----
 -------------------------------------------------------------------------------
 count for grid        1:         282325          cutoff [a.u.]          200.00
 count for grid        2:         139198          cutoff [a.u.]           66.67
 count for grid        3:          61758          cutoff [a.u.]           22.22
 count for grid        4:          16663          cutoff [a.u.]            7.41
 total gridlevel count  :         499944

 -------------------------------------------------------------------------------
 -                                                                             -
 -                         MESSAGE PASSING PERFORMANCE                         -
 -                                                                             -
 -------------------------------------------------------------------------------

 ROUTINE             CALLS      AVE VOLUME [Bytes]
 MP_Group               72
 MP_Bcast              723                 509982.
 MP_Allreduce         3820                    192.
 MP_Sync                46
 MP_Alltoall          3956                 945274.
 MP_ISendRecv         7104                  37952.
 MP_Wait             76732
 MP_comm_split          42
 MP_ISend            31845                  29401.
 MP_IRecv            31845                  29374.
 MP_Recv                 6                    624.
 MP_Memory           32972
 -------------------------------------------------------------------------------


 -------------------------------------------------------------------------------
 -                                                                             -
 -                           R E F E R E N C E S                               -
 -                                                                             -
 -------------------------------------------------------------------------------
 
 CP2K version 5.1, the CP2K developers group (2017).
 CP2K is freely available from https://www.cp2k.org/ .

 Schuett, Ole; Messmer, Peter; Hutter, Juerg; VandeVondele, Joost. 
 Electronic Structure Calculations on Graphics Processing Units, John Wiley & Sons, Ltd, 173-190 (2016). 
 GPU-Accelerated Sparse Matrix-Matrix Multiplication for Linear Scaling Density Functional Theory.
 http://dx.doi.org/10.1002/9781118670712.ch8


 Borstnik, U; VandeVondele, J; Weber, V; Hutter, J. 
 PARALLEL COMPUTING, 40 (5-6), 47-58 (2014). 
 Sparse matrix multiplication: The distributed block-compressed sparse
 row library.
 http://dx.doi.org/10.1016/j.parco.2014.03.012


 Hutter, J; Iannuzzi, M; Schiffmann, F; VandeVondele, J. 
 WILEY INTERDISCIPLINARY REVIEWS-COMPUTATIONAL MOLECULAR SCIENCE, 4 (1), 15-25 (2014). 
 CP2K: atomistic simulations of condensed matter systems.
 http://dx.doi.org/10.1002/wcms.1159


 Grimme, S; Ehrlich, S; Goerigk, L. 
 JOURNAL OF COMPUTATIONAL CHEMISTRY, 32, 1456 (2011). 
 Effect of the damping function in dispersion corrected density functional theory.
 http://dx.doi.org/10.1002/jcc.21759


 Grimme, S; Antony, J; Ehrlich, S; Krieg, H. 
 JOURNAL OF CHEMICAL PHYSICS, 132 (15), 154104 (2010). 
 A consistent and accurate ab initio parametrization of density
 functional dispersion correction (DFT-D) for the 94 elements H-Pu.
 http://dx.doi.org/10.1063/1.3382344


 VandeVondele, J; Hutter, J. 
 JOURNAL OF CHEMICAL PHYSICS, 127 (11), 114105 (2007). 
 Gaussian basis sets for accurate calculations on molecular systems in
 gas and condensed phases.
 http://dx.doi.org/10.1063/1.2770708


 Krack, M. 
 THEORETICAL CHEMISTRY ACCOUNTS, 114 (1-3), 145-152 (2005). 
 Pseudopotentials for H to Kr optimized for gradient-corrected
 exchange-correlation functionals.
 http://dx.doi.org/10.1007/s00214-005-0655-y


 VandeVondele, J; Krack, M; Mohamed, F; Parrinello, M; Chassaing, T;
 Hutter, J. COMPUTER PHYSICS COMMUNICATIONS, 167 (2), 103-128 (2005). 
 QUICKSTEP: Fast and accurate density functional calculations using a
 mixed Gaussian and plane waves approach.
 http://dx.doi.org/10.1016/j.cpc.2004.12.014


 Frigo, M; Johnson, SG. 
 PROCEEDINGS OF THE IEEE, 93 (2), 216-231 (2005). 
 The design and implementation of FFTW3.
 http://dx.doi.org/10.1109/JPROC.2004.840301


 VandeVondele, J; Hutter, J. 
 JOURNAL OF CHEMICAL PHYSICS, 118 (10), 4365-4369 (2003). 
 An efficient orbital transformation method for electronic structure
 calculations.
 http://dx.doi.org/10.1063/1.1543154


 Hartwigsen, C; Goedecker, S; Hutter, J. 
 PHYSICAL REVIEW B, 58 (7), 3641-3662 (1998). 
 Relativistic separable dual-space Gaussian pseudopotentials from H to Rn.
 http://dx.doi.org/10.1103/PhysRevB.58.3641


 Lippert, G; Hutter, J; Parrinello, M. 
 MOLECULAR PHYSICS, 92 (3), 477-487 (1997). 
 A hybrid Gaussian and plane wave density functional scheme.
 http://dx.doi.org/10.1080/002689797170220


 Perdew, JP; Burke, K; Ernzerhof, M. 
 PHYSICAL REVIEW LETTERS, 77 (18), 3865-3868 (1996). 
 Generalized gradient approximation made simple.
 http://dx.doi.org/10.1103/PhysRevLett.77.3865


 Goedecker, S; Teter, M; Hutter, J. 
 PHYSICAL REVIEW B, 54 (3), 1703-1710 (1996). 
 Separable dual-space Gaussian pseudopotentials.
 http://dx.doi.org/10.1103/PhysRevB.54.1703


 -------------------------------------------------------------------------------
 -                                                                             -
 -                                T I M I N G                                  -
 -                                                                             -
 -------------------------------------------------------------------------------
 SUBROUTINE                       CALLS  ASD         SELF TIME        TOTAL TIME
                                MAXIMUM       AVERAGE  MAXIMUM  AVERAGE  MAXIMUM
 CP2K                                 1  1.0    0.066    0.085   13.021   13.026
 qs_energies                          1  2.0    0.015    0.028   12.448   12.455
 scf_env_do_scf                       1  3.0    0.000    0.002   11.848   11.848
 scf_env_do_scf_inner_loop           18  4.0    0.004    0.006   11.258   11.258
 qs_ks_update_qs_env                 19  5.0    0.001    0.003    8.146    8.148
 rebuild_ks_matrix                   18  6.0    0.000    0.000    8.142    8.144
 qs_ks_build_kohn_sham_matrix        18  7.0    0.010    0.018    8.142    8.144
 pw_transfer                        641  9.7    0.037    0.056    7.031    7.210
 fft_wrap_pw1pw2                    605 10.7    0.004    0.006    6.964    7.142
 fft_wrap_pw1pw2_200                383 11.9    0.415    0.457    6.676    6.870
 fft3d_ps                           605 12.7    2.975    3.222    5.764    6.061
 qs_vxc_create                       18  8.0    0.002    0.007    5.490    5.543
 xc_vxc_pw_create                    18  9.0    0.123    0.135    5.488    5.542
 mp_alltoall_z22v                   605 14.7    2.166    3.201    2.166    3.201
 qs_rho_update_rho                   19  5.0    0.000    0.001    2.959    2.961
 calculate_rho_elec                  38  6.0    0.038    0.127    2.959    2.961
 density_rs2pw                       38  7.0    0.002    0.002    2.721    2.758
 xc_rho_set_and_dset_create          18 10.0    0.058    0.064    2.421    2.711
 rs_pw_transfer                     297  9.4    0.002    0.003    2.546    2.558
 sum_up_and_integrate                18  8.0    0.040    0.047    2.137    2.141
 integrate_v_rspace                  36  9.0    0.010    0.077    2.097    2.106
 potential_pw2rs                     36 10.0    0.003    0.004    2.016    2.025
 yz_to_x                            259 13.2    0.246    0.270    1.421    1.935
 x_to_yz                            272 14.2    0.345    0.370    1.333    1.691
 rs_pw_transfer_RS2PW_200            39  8.9    0.560    0.607    0.841    0.890
 rs_pw_transfer_PW2RS_200            36 12.0    0.488    0.553    0.753    0.833
 qs_scf_new_mos                      18  5.0    0.000    0.000    0.796    0.797
 qs_scf_loop_do_ot                   18  6.0    0.000    0.003    0.796    0.797
 ot_scf_mini                         18  7.0    0.002    0.004    0.765    0.765
 mp_waitany                        8193 11.4    0.639    0.725    0.639    0.725
 dbcsr_multiply_generic             845 10.1    0.028    0.038    0.651    0.664
 init_scf_loop                        1  4.0    0.001    0.003    0.588    0.588
 xc_functional_eval                  18 11.0    0.000    0.000    0.227    0.512
 pbe_lsd_eval                        18 12.0    0.227    0.511    0.227    0.511
 pw_gather_p                        297 12.1    0.417    0.454    0.417    0.454
 ot_mini                             18  8.0    0.001    0.003    0.433    0.434
 init_scf_run                         1  3.0    0.005    0.025    0.390    0.390
 scf_env_initial_rho_setup            1  4.0    0.003    0.025    0.384    0.388
 rs_pw_transfer_PW2RS_70             36 12.0    0.151    0.174    0.320    0.385
 pw_scatter_p                       308 13.3    0.346    0.383    0.346    0.383
 qs_ot_get_derivative                36  9.0    0.000    0.002    0.349    0.351
 pw_derive                          216 10.5    0.290    0.318    0.290    0.318
 qs_init_subsys                       1  2.0    0.010    0.017    0.304    0.315
 mp_waitall_1                     68539 13.4    0.239    0.313    0.239    0.313
 mp_sum_d                          1332  7.8    0.113    0.297    0.113    0.297
 rs_pw_transfer_RS2PW_70             38  9.0    0.169    0.191    0.277    0.291
 qs_ot_get_p                         38  7.9    0.001    0.008    0.276    0.278
 rs_grid_zero                       225  8.9    0.257    0.273    0.257    0.273
 -------------------------------------------------------------------------------

 The number of warnings for this run is : 0
 
 -------------------------------------------------------------------------------
  **** **** ******  **  PROGRAM ENDED AT                 2018-10-09 08:35:55.132
 ***** ** ***  *** **   PROGRAM RAN ON                                      g013
 **    ****   ******    PROGRAM RAN BY                                     macer
 ***** **    ** ** **   PROGRAM PROCESS ID                                  1921
  **** **  *******  **  PROGRAM STOPPED IN    /home/macer/CuOH2_CO2_folder/4_coo
