 DBCSR| Multiplication driver                                               BLAS
 DBCSR| Multrec recursion limit                                              512
 DBCSR| Multiplication stack size                                           1000
 DBCSR| Maximum elements for images                                    UNLIMITED
 DBCSR| Multiplicative factor virtual images                                   1
 DBCSR| Multiplication size stacks                                             3
 DBCSR| Number of 3D layers                                               SINGLE
 DBCSR| Use MPI memory allocation                                              T
 DBCSR| Use RMA algorithm                                                      F
 DBCSR| Use Communication thread                                               T
 DBCSR| Communication thread load                                             87


  **** **** ******  **  PROGRAM STARTED AT               2018-10-05 10:13:03.437
 ***** ** ***  *** **   PROGRAM STARTED ON                                  f199
 **    ****   ******    PROGRAM STARTED BY                                 macer
 ***** **    ** ** **   PROGRAM PROCESS ID                                 12946
  **** **  *******  **  PROGRAM STARTED IN /home/macer/H2OCO2 folder/both_from_n
                                           ew_wfn

 CP2K| version string:                                          CP2K version 5.1
 CP2K| source code revision number:                                    svn:18091
 CP2K| cp2kflags: libint fftw3 pexsi parallel mpi3 scalapack libderiv_max_am1=5 
 CP2K|            libint_max_am=6
 CP2K| is freely available from                            https://www.cp2k.org/
 CP2K| Program compiled at                          Thu Jul 5 11:15:01 CEST 2018
 CP2K| Program compiled on                                                  f016
 CP2K| Program compiled for                  linux-rhel7-x86_E5v4_Mellanox-intel
 CP2K| Data directory path    /dev/shm/scitasbuild/spack-stage/spack-stage-ZDQwS
 CP2K| Input file name                                                  CP2K.inp
 
 GLOBAL| Force Environment number                                              1
 GLOBAL| Basis set file name                                      ./BASIS_MOLOPT
 GLOBAL| Potential file name                                    ./GTH_POTENTIALS
 GLOBAL| MM Potential file name                                     MM_POTENTIAL
 GLOBAL| Coordinate file name                                      __STD_INPUT__
 GLOBAL| Method name                                                        CP2K
 GLOBAL| Project name                                                       cp2k
 GLOBAL| Preferred FFT library                                             FFTW3
 GLOBAL| Preferred diagonalization lib.                                       SL
 GLOBAL| Run type                                                         ENERGY
 GLOBAL| All-to-all communication in single precision                          F
 GLOBAL| FFTs using library dependent lengths                                  F
 GLOBAL| Global print level                                               MEDIUM
 GLOBAL| Total number of message passing processes                            25
 GLOBAL| Number of threads for this process                                    1
 GLOBAL| This output is from process                                           0
 GLOBAL| CPU model name :  Intel(R) Xeon(R) CPU E5-2690 v4 @ 2.60GHz

 MEMORY| system memory details [Kb]
 MEMORY|                        rank 0           min           max       average
 MEMORY| MemTotal            131627068     131627068     131627068     131627068
 MEMORY| MemFree             114695396     114695396     114695396     114695396
 MEMORY| Buffers                  5508          5508          5508          5508
 MEMORY| Cached                 197388        197388        197388        197388
 MEMORY| Slab                  1653988       1653988       1653988       1653988
 MEMORY| SReclaimable           177876        177876        177876        177876
 MEMORY| MemLikelyFree       115076168     115076168     115076168     115076168


 *** Fundamental physical constants (SI units) ***

 *** Literature: B. J. Mohr and B. N. Taylor,
 ***             CODATA recommended values of the fundamental physical
 ***             constants: 2006, Web Version 5.1
 ***             http://physics.nist.gov/constants

 Speed of light in vacuum [m/s]                             2.99792458000000E+08
 Magnetic constant or permeability of vacuum [N/A**2]       1.25663706143592E-06
 Electric constant or permittivity of vacuum [F/m]          8.85418781762039E-12
 Planck constant (h) [J*s]                                  6.62606896000000E-34
 Planck constant (h-bar) [J*s]                              1.05457162825177E-34
 Elementary charge [C]                                      1.60217648700000E-19
 Electron mass [kg]                                         9.10938215000000E-31
 Electron g factor [ ]                                     -2.00231930436220E+00
 Proton mass [kg]                                           1.67262163700000E-27
 Fine-structure constant                                    7.29735253760000E-03
 Rydberg constant [1/m]                                     1.09737315685270E+07
 Avogadro constant [1/mol]                                  6.02214179000000E+23
 Boltzmann constant [J/K]                                   1.38065040000000E-23
 Atomic mass unit [kg]                                      1.66053878200000E-27
 Bohr radius [m]                                            5.29177208590000E-11

 *** Conversion factors ***

 [u] -> [a.u.]                                              1.82288848426455E+03
 [Angstrom] -> [Bohr] = [a.u.]                              1.88972613288564E+00
 [a.u.] = [Bohr] -> [Angstrom]                              5.29177208590000E-01
 [a.u.] -> [s]                                              2.41888432650478E-17
 [a.u.] -> [fs]                                             2.41888432650478E-02
 [a.u.] -> [J]                                              4.35974393937059E-18
 [a.u.] -> [N]                                              8.23872205491840E-08
 [a.u.] -> [K]                                              3.15774647902944E+05
 [a.u.] -> [kJ/mol]                                         2.62549961709828E+03
 [a.u.] -> [kcal/mol]                                       6.27509468713739E+02
 [a.u.] -> [Pa]                                             2.94210107994716E+13
 [a.u.] -> [bar]                                            2.94210107994716E+08
 [a.u.] -> [atm]                                            2.90362800883016E+08
 [a.u.] -> [eV]                                             2.72113838565563E+01
 [a.u.] -> [Hz]                                             6.57968392072181E+15
 [a.u.] -> [1/cm] (wave numbers)                            2.19474631370540E+05
 [a.u./Bohr**2] -> [1/cm]                                   5.14048714338585E+03
 

 CELL_TOP| Volume [angstrom^3]:                                         3375.000
 CELL_TOP| Vector a [angstrom    15.000     0.000     0.000    |a| =      15.000
 CELL_TOP| Vector b [angstrom     0.000    15.000     0.000    |b| =      15.000
 CELL_TOP| Vector c [angstrom     0.000     0.000    15.000    |c| =      15.000
 CELL_TOP| Angle (b,c), alpha [degree]:                                   90.000
 CELL_TOP| Angle (a,c), beta  [degree]:                                   90.000
 CELL_TOP| Angle (a,b), gamma [degree]:                                   90.000
 CELL_TOP| Numerically orthorhombic:                                         YES
 
 GENERATE|  Preliminary Number of Bonds generated:                             0
 GENERATE|  Achieved consistency in connectivity generation.

 CELL| Volume [angstrom^3]:                                             3375.000
 CELL| Vector a [angstrom]:      15.000     0.000     0.000    |a| =      15.000
 CELL| Vector b [angstrom]:       0.000    15.000     0.000    |b| =      15.000
 CELL| Vector c [angstrom]:       0.000     0.000    15.000    |c| =      15.000
 CELL| Angle (b,c), alpha [degree]:                                       90.000
 CELL| Angle (a,c), beta  [degree]:                                       90.000
 CELL| Angle (a,b), gamma [degree]:                                       90.000
 CELL| Numerically orthorhombic:                                             YES

 CELL_REF| Volume [angstrom^3]:                                         3375.000
 CELL_REF| Vector a [angstrom    15.000     0.000     0.000    |a| =      15.000
 CELL_REF| Vector b [angstrom     0.000    15.000     0.000    |b| =      15.000
 CELL_REF| Vector c [angstrom     0.000     0.000    15.000    |c| =      15.000
 CELL_REF| Angle (b,c), alpha [degree]:                                   90.000
 CELL_REF| Angle (a,c), beta  [degree]:                                   90.000
 CELL_REF| Angle (a,b), gamma [degree]:                                   90.000
 CELL_REF| Numerically orthorhombic:                                         YES

 *******************************************************************************
 *******************************************************************************
 **                                                                           **
 **     #####                         ##              ##                      **
 **    ##   ##            ##          ##              ##                      **
 **   ##     ##                       ##            ######                    **
 **   ##     ##  ##   ##  ##   #####  ##  ##   ####   ##    #####    #####    **
 **   ##     ##  ##   ##  ##  ##      ## ##   ##      ##   ##   ##  ##   ##   **
 **   ##  ## ##  ##   ##  ##  ##      ####     ###    ##   ######   ######    **
 **    ##  ###   ##   ##  ##  ##      ## ##      ##   ##   ##       ##        **
 **     #######   #####   ##   #####  ##  ##  ####    ##    #####   ##        **
 **           ##                                                    ##        **
 **                                                                           **
 **                                                ... make the atoms dance   **
 **                                                                           **
 **            Copyright (C) by CP2K developers group (2000 - 2017)           **
 **                                                                           **
 *******************************************************************************

 DFT| Spin restricted Kohn-Sham (RKS) calculation                            RKS
 DFT| Multiplicity                                                             1
 DFT| Number of spin states                                                    1
 DFT| Charge                                                                   0
 DFT| Self-interaction correction (SIC)                                       NO
 DFT| Cutoffs: density                                              1.000000E-10
 DFT|          gradient                                             1.000000E-10
 DFT|          tau                                                  1.000000E-10
 DFT|          cutoff_smoothing_range                               0.000000E+00
 DFT| XC density smoothing                                                  NONE
 DFT| XC derivatives                                                          PW
 FUNCTIONAL| ROUTINE=NEW
 FUNCTIONAL| PBE:
 FUNCTIONAL| J.P.Perdew, K.Burke, M.Ernzerhof, Phys. Rev. Letter, vol. 77, n 18,
 FUNCTIONAL|  pp. 3865-3868, (1996){spin unpolarized}                           
 vdW POTENTIAL|                                                   Pair Potential
 vdW POTENTIAL|          DFT-D3 (Version 3.1)
 vdW POTENTIAL|          Potential Form: S. Grimme et al, JCP 132: 154104 (2010)
 vdW POTENTIAL|          BJ Damping: S. Grimme et al, JCC 32: 1456 (2011)
 vdW POTENTIAL|          Cutoff Radius [Bohr]:                             20.00
 vdW POTENTIAL|          s6 Scaling Factor:                               1.0000
 vdW POTENTIAL|          a1 Damping Factor:                               0.4289
 vdW POTENTIAL|          s8 Scaling Factor:                               0.7875
 vdW POTENTIAL|          a2 Damping Factor:                               4.4407
 vdW POTENTIAL|          Cutoff for CN calculation:                   0.1000E-05

 QS| Method:                                                                 GPW
 QS| Density plane wave grid type                        NON-SPHERICAL FULLSPACE
 QS| Number of grid levels:                                                    4
 QS| Density cutoff [a.u.]:                                                200.0
 QS| Multi grid cutoff [a.u.]: 1) grid level                               200.0
 QS|                           2) grid level                                66.7
 QS|                           3) grid level                                22.2
 QS|                           4) grid level                                 7.4
 QS| Grid level progression factor:                                          3.0
 QS| Relative density cutoff [a.u.]:                                        25.0
 QS| Consistent realspace mapping and integration 
 QS| Interaction thresholds: eps_pgf_orb:                                1.0E-05
 QS|                         eps_filter_matrix:                          0.0E+00
 QS|                         eps_core_charge:                            1.0E-12
 QS|                         eps_rho_gspace:                             1.0E-10
 QS|                         eps_rho_rspace:                             1.0E-10
 QS|                         eps_gvg_rspace:                             1.0E-05
 QS|                         eps_ppl:                                    1.0E-02
 QS|                         eps_ppnl:                                   1.0E-07


 ATOMIC KIND INFORMATION

  1. Atomic kind: O                                     Number of atoms:       3

     Orbital Basis Set                                        DZVP-MOLOPT-SR-GTH

       Number of orbital shell sets:                                           1
       Number of orbital shells:                                               5
       Number of primitive Cartesian functions:                                5
       Number of Cartesian basis functions:                                   14
       Number of spherical basis functions:                                   13
       Norm type:                                                              2

       Normalised Cartesian orbitals:

                        Set   Shell   Orbital            Exponent    Coefficient

                          1       1    2s               10.389228       0.396646
                                                         3.849621       0.208811
                                                         1.388401      -0.301641
                                                         0.496955      -0.274061
                                                         0.162492      -0.033677

                          1       2    3s               10.389228       0.303673
                                                         3.849621       0.240943
                                                         1.388401      -0.313066
                                                         0.496955      -0.043055
                                                         0.162492       0.213991

                          1       3    3px              10.389228      -1.530415
                                                         3.849621      -1.371928
                                                         1.388401      -0.761951
                                                         0.496955      -0.253695
                                                         0.162492      -0.035541
                          1       3    3py              10.389228      -1.530415
                                                         3.849621      -1.371928
                                                         1.388401      -0.761951
                                                         0.496955      -0.253695
                                                         0.162492      -0.035541
                          1       3    3pz              10.389228      -1.530415
                                                         3.849621      -1.371928
                                                         1.388401      -0.761951
                                                         0.496955      -0.253695
                                                         0.162492      -0.035541

                          1       4    4px              10.389228      -0.565392
                                                         3.849621      -0.038231
                                                         1.388401      -0.382373
                                                         0.496955       0.179070
                                                         0.162492       0.122714
                          1       4    4py              10.389228      -0.565392
                                                         3.849621      -0.038231
                                                         1.388401      -0.382373
                                                         0.496955       0.179070
                                                         0.162492       0.122714
                          1       4    4pz              10.389228      -0.565392
                                                         3.849621      -0.038231
                                                         1.388401      -0.382373
                                                         0.496955       0.179070
                                                         0.162492       0.122714

                          1       5    4dx2             10.389228       1.867377
                                                         3.849621       0.670994
                                                         1.388401       1.353441
                                                         0.496955       0.273538
                                                         0.162492       0.006620
                          1       5    4dxy             10.389228       3.234392
                                                         3.849621       1.162195
                                                         1.388401       2.344229
                                                         0.496955       0.473781
                                                         0.162492       0.011466
                          1       5    4dxz             10.389228       3.234392
                                                         3.849621       1.162195
                                                         1.388401       2.344229
                                                         0.496955       0.473781
                                                         0.162492       0.011466
                          1       5    4dy2             10.389228       1.867377
                                                         3.849621       0.670994
                                                         1.388401       1.353441
                                                         0.496955       0.273538
                                                         0.162492       0.006620
                          1       5    4dyz             10.389228       3.234392
                                                         3.849621       1.162195
                                                         1.388401       2.344229
                                                         0.496955       0.473781
                                                         0.162492       0.011466
                          1       5    4dz2             10.389228       1.867377
                                                         3.849621       0.670994
                                                         1.388401       1.353441
                                                         0.496955       0.273538
                                                         0.162492       0.006620

     GTH Potential information for                                       GTH-PBE

       Description:                       Goedecker-Teter-Hutter pseudopotential
                                           Goedecker et al., PRB 54, 1703 (1996)
                                          Hartwigsen et al., PRB 58, 3641 (1998)
                                                      Krack, TCA 114, 145 (2005)

       Gaussian exponent of the core charge distribution:               8.360253
       Electronic configuration (s p d ...):                               2   4

       Parameters of the local part of the GTH pseudopotential:

                          rloc        C1          C2          C3          C4
                        0.244554  -16.667215    2.487311

       Parameters of the non-local part of the GTH pseudopotential:

                   l      r(l)      h(i,j,l)

                   0    0.220956   18.337458
                   1    0.211332

  2. Atomic kind: H                                     Number of atoms:       2

     Orbital Basis Set                                        DZVP-MOLOPT-SR-GTH

       Number of orbital shell sets:                                           1
       Number of orbital shells:                                               3
       Number of primitive Cartesian functions:                                5
       Number of Cartesian basis functions:                                    5
       Number of spherical basis functions:                                    5
       Norm type:                                                              2

       Normalised Cartesian orbitals:

                        Set   Shell   Orbital            Exponent    Coefficient

                          1       1    2s               10.068468      -0.133023
                                                         2.680223      -0.177618
                                                         0.791502      -0.258419
                                                         0.239116      -0.107525
                                                         0.082193      -0.014019

                          1       2    3s               10.068468       0.344673
                                                         2.680223       1.819821
                                                         0.791502      -0.999069
                                                         0.239116       0.017430
                                                         0.082193       0.082660

                          1       3    3px              10.068468       0.155326
                                                         2.680223       0.367157
                                                         0.791502       0.311480
                                                         0.239116       0.080105
                                                         0.082193       0.033440
                          1       3    3py              10.068468       0.155326
                                                         2.680223       0.367157
                                                         0.791502       0.311480
                                                         0.239116       0.080105
                                                         0.082193       0.033440
                          1       3    3pz              10.068468       0.155326
                                                         2.680223       0.367157
                                                         0.791502       0.311480
                                                         0.239116       0.080105
                                                         0.082193       0.033440

     GTH Potential information for                                       GTH-PBE

       Description:                       Goedecker-Teter-Hutter pseudopotential
                                           Goedecker et al., PRB 54, 1703 (1996)
                                          Hartwigsen et al., PRB 58, 3641 (1998)
                                                      Krack, TCA 114, 145 (2005)

       Gaussian exponent of the core charge distribution:              12.500000
       Electronic configuration (s p d ...):                                   1

       Parameters of the local part of the GTH pseudopotential:

                          rloc        C1          C2          C3          C4
                        0.200000   -4.178900    0.724463

  3. Atomic kind: C                                     Number of atoms:       1

     Orbital Basis Set                                        DZVP-MOLOPT-SR-GTH

       Number of orbital shell sets:                                           1
       Number of orbital shells:                                               5
       Number of primitive Cartesian functions:                                5
       Number of Cartesian basis functions:                                   14
       Number of spherical basis functions:                                   13
       Norm type:                                                              2

       Normalised Cartesian orbitals:

                        Set   Shell   Orbital            Exponent    Coefficient

                          1       1    2s                5.605331       0.322515
                                                         2.113016       0.213043
                                                         0.769911      -0.209686
                                                         0.348157      -0.219794
                                                         0.128212      -0.022789

                          1       2    3s                5.605331       0.552234
                                                         2.113016       0.082072
                                                         0.769911       0.007843
                                                         0.348157       0.136893
                                                         0.128212       0.074283

                          1       3    3px               5.605331      -0.703879
                                                         2.113016      -0.642521
                                                         0.769911      -0.374851
                                                         0.348157      -0.139743
                                                         0.128212      -0.027849
                          1       3    3py               5.605331      -0.703879
                                                         2.113016      -0.642521
                                                         0.769911      -0.374851
                                                         0.348157      -0.139743
                                                         0.128212      -0.027849
                          1       3    3pz               5.605331      -0.703879
                                                         2.113016      -0.642521
                                                         0.769911      -0.374851
                                                         0.348157      -0.139743
                                                         0.128212      -0.027849

                          1       4    4px               5.605331      -0.480376
                                                         2.113016      -0.552894
                                                         0.769911      -0.316145
                                                         0.348157       0.210505
                                                         0.128212       0.076095
                          1       4    4py               5.605331      -0.480376
                                                         2.113016      -0.552894
                                                         0.769911      -0.316145
                                                         0.348157       0.210505
                                                         0.128212       0.076095
                          1       4    4pz               5.605331      -0.480376
                                                         2.113016      -0.552894
                                                         0.769911      -0.316145
                                                         0.348157       0.210505
                                                         0.128212       0.076095

                          1       5    4dx2              5.605331       0.640026
                                                         2.113016       0.274300
                                                         0.769911       0.446711
                                                         0.348157       0.028674
                                                         0.128212       0.029790
                          1       5    4dxy              5.605331       1.108557
                                                         2.113016       0.475102
                                                         0.769911       0.773726
                                                         0.348157       0.049666
                                                         0.128212       0.051599
                          1       5    4dxz              5.605331       1.108557
                                                         2.113016       0.475102
                                                         0.769911       0.773726
                                                         0.348157       0.049666
                                                         0.128212       0.051599
                          1       5    4dy2              5.605331       0.640026
                                                         2.113016       0.274300
                                                         0.769911       0.446711
                                                         0.348157       0.028674
                                                         0.128212       0.029790
                          1       5    4dyz              5.605331       1.108557
                                                         2.113016       0.475102
                                                         0.769911       0.773726
                                                         0.348157       0.049666
                                                         0.128212       0.051599
                          1       5    4dz2              5.605331       0.640026
                                                         2.113016       0.274300
                                                         0.769911       0.446711
                                                         0.348157       0.028674
                                                         0.128212       0.029790

     GTH Potential information for                                       GTH-PBE

       Description:                       Goedecker-Teter-Hutter pseudopotential
                                           Goedecker et al., PRB 54, 1703 (1996)
                                          Hartwigsen et al., PRB 58, 3641 (1998)
                                                      Krack, TCA 114, 145 (2005)

       Gaussian exponent of the core charge distribution:               4.364419
       Electronic configuration (s p d ...):                               2   2

       Parameters of the local part of the GTH pseudopotential:

                          rloc        C1          C2          C3          C4
                        0.338471   -8.803674    1.339211

       Parameters of the non-local part of the GTH pseudopotential:

                   l      r(l)      h(i,j,l)

                   0    0.302576    9.622487
                   1    0.291507


 MOLECULE KIND INFORMATION


 All atoms are their own molecule, skipping detailed information


 TOTAL NUMBERS AND MAXIMUM NUMBERS

  Total number of            - Atomic kinds:                                   3
                             - Atoms:                                          6
                             - Shell sets:                                     6
                             - Shells:                                        26
                             - Primitive Cartesian functions:                 30
                             - Cartesian basis functions:                     66
                             - Spherical basis functions:                     62

  Maximum angular momentum of- Orbital basis functions:                        2
                             - Local part of the GTH pseudopotential:          2
                             - Non-local part of the GTH pseudopotential:      0


 MODULE QUICKSTEP:  ATOMIC COORDINATES IN angstrom

  Atom  Kind  Element       X           Y           Z          Z(eff)       Mass

       1     1 O    8    5.317935    8.826673    7.189616      6.00      15.9994
       2     2 H    1    5.102610    8.838710    6.243829      1.00       1.0079
       3     2 H    1    4.550676    8.404152    7.606535      1.00       1.0079
       4     1 O    8    7.891894    7.192346    9.047571      6.00      15.9994
       5     3 C    6    8.304738    7.547036    8.002966      4.00      12.0107
       6     1 O    8    8.743152    7.888383    6.964402      6.00      15.9994




 SCF PARAMETERS         Density guess:                                   RESTART
                        --------------------------------------------------------
                        max_scf:                                              50
                        max_scf_history:                                       0
                        max_diis:                                              4
                        --------------------------------------------------------
                        eps_scf:                                        1.00E-06
                        eps_scf_history:                                0.00E+00
                        eps_diis:                                       1.00E-01
                        eps_eigval:                                     1.00E-05
                        --------------------------------------------------------
                        level_shift [a.u.]:                                 0.00
                        --------------------------------------------------------
                        Outer loop SCF in use 
                        No variables optimised in outer loop
                        eps_scf                                         1.00E-06
                        max_scf                                               10
                        No outer loop optimization
                        step_size                                       5.00E-01

 PW_GRID| Information for grid number                                          1
 PW_GRID| Grid distributed over                                    25 processors
 PW_GRID| Real space group dimensions                                    25    1
 PW_GRID| the grid is blocked:                                                NO
 PW_GRID| Cutoff [a.u.]                                                    200.0
 PW_GRID| spherical cutoff:                                                   NO
 PW_GRID|   Bounds   1            -96      95                Points:         192
 PW_GRID|   Bounds   2            -96      95                Points:         192
 PW_GRID|   Bounds   3            -96      95                Points:         192
 PW_GRID| Volume element (a.u.^3)  0.3218E-02     Volume (a.u.^3)     22775.6292
 PW_GRID| Grid span                                                    FULLSPACE
 PW_GRID|   Distribution                         Average         Max         Min
 PW_GRID|   G-Vectors                           283115.5      283200      283008
 PW_GRID|   G-Rays                                1474.6        1475        1474
 PW_GRID|   Real Space Points                   283115.5      294912      258048

 PW_GRID| Information for grid number                                          2
 PW_GRID| Grid distributed over                                    25 processors
 PW_GRID| Real space group dimensions                                    25    1
 PW_GRID| the grid is blocked:                                                NO
 PW_GRID| Cutoff [a.u.]                                                     66.7
 PW_GRID| spherical cutoff:                                                   NO
 PW_GRID|   Bounds   1            -54      53                Points:         108
 PW_GRID|   Bounds   2            -54      53                Points:         108
 PW_GRID|   Bounds   3            -54      53                Points:         108
 PW_GRID| Volume element (a.u.^3)  0.1808E-01     Volume (a.u.^3)     22775.6292
 PW_GRID| Grid span                                                    FULLSPACE
 PW_GRID|   Distribution                         Average         Max         Min
 PW_GRID|   G-Vectors                            50388.5       50544       50220
 PW_GRID|   G-Rays                                 466.6         468         465
 PW_GRID|   Real Space Points                    50388.5       58320       46656

 PW_GRID| Information for grid number                                          3
 PW_GRID| Grid distributed over                                    25 processors
 PW_GRID| Real space group dimensions                                    25    1
 PW_GRID| the grid is blocked:                                                NO
 PW_GRID| Cutoff [a.u.]                                                     22.2
 PW_GRID| spherical cutoff:                                                   NO
 PW_GRID|   Bounds   1            -32      31                Points:          64
 PW_GRID|   Bounds   2            -32      31                Points:          64
 PW_GRID|   Bounds   3            -32      31                Points:          64
 PW_GRID| Volume element (a.u.^3)  0.8688E-01     Volume (a.u.^3)     22775.6292
 PW_GRID| Grid span                                                    FULLSPACE
 PW_GRID|   Distribution                         Average         Max         Min
 PW_GRID|   G-Vectors                            10485.8       10560       10432
 PW_GRID|   G-Rays                                 163.8         165         163
 PW_GRID|   Real Space Points                    10485.8       12288        8192

 PW_GRID| Information for grid number                                          4
 PW_GRID| Grid distributed over                                    25 processors
 PW_GRID| Real space group dimensions                                    25    1
 PW_GRID| the grid is blocked:                                                NO
 PW_GRID| Cutoff [a.u.]                                                      7.4
 PW_GRID| spherical cutoff:                                                   NO
 PW_GRID|   Bounds   1            -18      17                Points:          36
 PW_GRID|   Bounds   2            -18      17                Points:          36
 PW_GRID|   Bounds   3            -18      17                Points:          36
 PW_GRID| Volume element (a.u.^3)  0.4882         Volume (a.u.^3)     22775.6292
 PW_GRID| Grid span                                                    FULLSPACE
 PW_GRID|   Distribution                         Average         Max         Min
 PW_GRID|   G-Vectors                             1866.2        1908        1836
 PW_GRID|   G-Rays                                  51.8          53          51
 PW_GRID|   Real Space Points                     1866.2        2592        1296

 POISSON| Solver                                                        PERIODIC
 POISSON| Periodicity                                                        XYZ

 RS_GRID| Information for grid number                                          1
 RS_GRID|   Bounds   1            -96      95                Points:         192
 RS_GRID|   Bounds   2            -96      95                Points:         192
 RS_GRID|   Bounds   3            -96      95                Points:         192
 RS_GRID| Real space distribution over                                  5 groups
 RS_GRID| Real space distribution along direction                              2
 RS_GRID| Border size                                                         24
 RS_GRID| Real space distribution over                                  5 groups
 RS_GRID| Real space distribution along direction                              3
 RS_GRID| Border size                                                         24
 RS_GRID|   Distribution                         Average         Max         Min
 RS_GRID|   Planes                                  86.4          87          86
 RS_GRID|   Distribution                         Average         Max         Min
 RS_GRID|   Planes                                  86.4          87          86

 RS_GRID| Information for grid number                                          2
 RS_GRID|   Bounds   1            -54      53                Points:         108
 RS_GRID|   Bounds   2            -54      53                Points:         108
 RS_GRID|   Bounds   3            -54      53                Points:         108
 RS_GRID| Real space distribution over                                  5 groups
 RS_GRID| Real space distribution along direction                              2
 RS_GRID| Border size                                                         25
 RS_GRID| Real space distribution over                                  5 groups
 RS_GRID| Real space distribution along direction                              3
 RS_GRID| Border size                                                         25
 RS_GRID|   Distribution                         Average         Max         Min
 RS_GRID|   Planes                                  71.6          72          71
 RS_GRID|   Distribution                         Average         Max         Min
 RS_GRID|   Planes                                  71.6          72          71

 RS_GRID| Information for grid number                                          3
 RS_GRID|   Bounds   1            -32      31                Points:          64
 RS_GRID|   Bounds   2            -32      31                Points:          64
 RS_GRID|   Bounds   3            -32      31                Points:          64
 RS_GRID| Real space fully replicated
 RS_GRID| Group size                                                           1

 RS_GRID| Information for grid number                                          4
 RS_GRID|   Bounds   1            -18      17                Points:          36
 RS_GRID|   Bounds   2            -18      17                Points:          36
 RS_GRID|   Bounds   3            -18      17                Points:          36
 RS_GRID| Real space fully replicated
 RS_GRID| Group size                                                           1

 DISTRIBUTION OF THE PARTICLES (ROWS)
              Process row      Number of particles         Number of matrix rows
                        0                        1                            -1
                        1                        1                            -1
                        2                        2                            -1
                        3                        1                            -1
                        4                        1                            -1
                      Sum                        6                            -1

 DISTRIBUTION OF THE PARTICLES (COLUMNS)
              Process col      Number of particles      Number of matrix columns
                        0                        1                            -1
                        1                        1                            -1
                        2                        2                            -1
                        3                        1                            -1
                        4                        1                            -1
                      Sum                        6                            -1

 DISTRIBUTION OF THE NEIGHBOR LISTS
              Total number of particle pairs:                                 22
              Total number of matrix elements:                              2350
              Average number of particle pairs:                                1
              Maximum number of particle pairs:                                3
              Average number of matrix element:                               94
              Maximum number of matrix elements:                             169


 DISTRIBUTION OF THE OVERLAP MATRIX
              Number  of non-zero blocks:                                     21
              Percentage non-zero blocks:                                 100.00
              Average number of blocks per CPU:                                1
              Maximum number of blocks per CPU:                                3
              Average number of matrix elements per CPU:                      99
              Maximum number of matrix elements per CPU:                     179

 Number of electrons:                                                         24
 Number of occupied orbitals:                                                 12
 Number of molecular orbitals:                                                12

 Number of orbital functions:                                                 62
 Number of independent orbital functions:                                     62

 Extrapolation method: initial_guess


 SCF WAVEFUNCTION OPTIMIZATION

  ----------------------------------- OT ---------------------------------------
  Minimizer      : DIIS                : direct inversion
                                         in the iterative subspace
                                         using   7 DIIS vectors
                                         safer DIIS on
  Preconditioner : FULL_ALL            : diagonalization, state selective
  Precond_solver : DEFAULT
  stepsize       :    0.15000000                  energy_gap     :    0.08000000
  eps_taylor     :   0.10000E-15                  max_taylor     :             4
  ----------------------------------- OT ---------------------------------------

  Step     Update method      Time    Convergence         Total energy    Change
  ------------------------------------------------------------------------------
     1 OT DIIS     0.15E+00    0.7     0.56660826       -24.8712139882 -2.49E+01
     2 OT DIIS     0.15E+00    0.8     0.44130652       -31.4595907229 -6.59E+00
     3 OT DIIS     0.15E+00    0.8     0.36142627       -39.2978548237 -7.84E+00
     4 OT DIIS     0.15E+00    0.8     0.29783474       -43.5506496548 -4.25E+00
     5 OT DIIS     0.15E+00    0.8     0.22989901       -45.6934268338 -2.14E+00
     6 OT SD       0.15E+00    0.8     0.38201358       -46.4370304106 -7.44E-01
     7 OT DIIS     0.15E+00    0.8     0.34097058       -47.1056755809 -6.69E-01
     8 OT DIIS     0.15E+00    0.8     0.27209292       -48.0760899402 -9.70E-01
     9 OT DIIS     0.15E+00    0.8     0.17600486       -49.9227441635 -1.85E+00
    10 OT DIIS     0.15E+00    0.8     0.16325833       -50.6044741905 -6.82E-01
    11 OT DIIS     0.15E+00    0.8     0.14141559       -51.0838341665 -4.79E-01
    12 OT DIIS     0.15E+00    0.8     0.12452353       -51.6895756804 -6.06E-01
    13 OT DIIS     0.15E+00    0.8     0.09206164       -52.2119435794 -5.22E-01
    14 OT DIIS     0.15E+00    0.8     0.10263018       -52.4030097698 -1.91E-01
    15 OT DIIS     0.15E+00    0.8     0.08015260       -52.8195152743 -4.17E-01
    16 OT DIIS     0.15E+00    0.8     0.06875076       -53.0500014175 -2.30E-01
    17 OT DIIS     0.15E+00    0.8     0.05928077       -53.4464884781 -3.96E-01
    18 OT DIIS     0.15E+00    0.8     0.06693154       -53.5610029416 -1.15E-01
    19 OT DIIS     0.15E+00    0.8     0.04243082       -53.6212451123 -6.02E-02
    20 OT DIIS     0.15E+00    0.8     0.02746445       -53.6543074359 -3.31E-02
    21 OT DIIS     0.15E+00    0.8     0.02234838       -53.6846001092 -3.03E-02
    22 OT DIIS     0.15E+00    0.8     0.02531971       -53.7007388486 -1.61E-02
    23 OT DIIS     0.15E+00    0.8     0.01607169       -53.7269692414 -2.62E-02
    24 OT DIIS     0.15E+00    0.8     0.01371397       -53.7434181100 -1.64E-02
    25 OT DIIS     0.15E+00    0.8     0.01260660       -53.7636255035 -2.02E-02
    26 OT DIIS     0.15E+00    0.8     0.01247776       -53.7800570818 -1.64E-02
    27 OT DIIS     0.15E+00    0.8     0.01237871       -53.7981852305 -1.81E-02
    28 OT DIIS     0.15E+00    0.8     0.01221505       -53.8200595390 -2.19E-02
    29 OT DIIS     0.15E+00    0.8     0.01098987       -53.8465722022 -2.65E-02
    30 OT DIIS     0.15E+00    0.8     0.01174029       -53.8626445265 -1.61E-02
    31 OT DIIS     0.15E+00    0.8     0.01056866       -53.8759324187 -1.33E-02
    32 OT DIIS     0.15E+00    0.8     0.01001148       -53.8922937821 -1.64E-02
    33 OT DIIS     0.15E+00    0.8     0.00975220       -53.9087249796 -1.64E-02
    34 OT DIIS     0.15E+00    0.8     0.00978587       -53.9215944950 -1.29E-02
    35 OT DIIS     0.15E+00    0.8     0.00908438       -53.9322131371 -1.06E-02
    36 OT DIIS     0.15E+00    0.8     0.00751422       -53.9391744305 -6.96E-03
    37 OT DIIS     0.15E+00    0.8     0.00752857       -53.9489893543 -9.81E-03
    38 OT DIIS     0.15E+00    0.8     0.00898515       -53.9668471840 -1.79E-02
    39 OT DIIS     0.15E+00    0.8     0.00837145       -53.9788947162 -1.20E-02
    40 OT DIIS     0.15E+00    0.8     0.00698846       -53.9872153377 -8.32E-03
    41 OT DIIS     0.15E+00    0.8     0.00626944       -53.9891919183 -1.98E-03
    42 OT DIIS     0.15E+00    0.8     0.00698704       -53.9990828314 -9.89E-03
    43 OT DIIS     0.15E+00    0.8     0.00718384       -54.0016721730 -2.59E-03
    44 OT DIIS     0.15E+00    0.8     0.00549638       -54.0057942989 -4.12E-03
    45 OT DIIS     0.15E+00    0.8     0.00524076       -54.0126649880 -6.87E-03
    46 OT DIIS     0.15E+00    0.8     0.00511168       -54.0172189863 -4.55E-03
    47 OT SD       0.15E+00    0.8     0.00549162       -54.0176509050 -4.32E-04
    48 OT DIIS     0.15E+00    0.8     0.01301559       -54.0189139821 -1.26E-03
    49 OT DIIS     0.15E+00    0.8     0.00487802       -54.0207145777 -1.80E-03
    50 OT SD       0.15E+00    0.8     0.00487665       -54.0214250823 -7.11E-04

  Leaving inner SCF loop after reaching    50 steps.


  Electronic density on regular grids:        -23.9999999990        0.0000000010
  Core density on regular grids:               23.9999999991       -0.0000000009
  Total charge density on r-space grids:        0.0000000001
  Total charge density g-space grids:           0.0000000001

  Overlap energy of the core charge distribution:               0.00000215551964
  Self energy of the core charge distribution:               -140.73457708150062
  Core Hamiltonian energy:                                     41.28616263307958
  Hartree energy:                                              58.31135099842523
  Exchange-correlation energy:                                -12.88246123581861
  Dispersion energy:                                           -0.00190255198735

  Total energy:                                               -54.02142508228213

  outer SCF iter =    1 RMS gradient =   0.49E-02 energy =        -54.0214250823

  ----------------------------------- OT ---------------------------------------
  Minimizer      : DIIS                : direct inversion
                                         in the iterative subspace
                                         using   7 DIIS vectors
                                         safer DIIS on
  Preconditioner : FULL_ALL            : diagonalization, state selective
  Precond_solver : DEFAULT
  stepsize       :    0.15000000                  energy_gap     :    0.08000000
  eps_taylor     :   0.10000E-15                  max_taylor     :             4
  ----------------------------------- OT ---------------------------------------

  Step     Update method      Time    Convergence         Total energy    Change
  ------------------------------------------------------------------------------
     1 OT DIIS     0.15E+00    1.6     0.07169232       -54.0240498122 -2.62E-03
     2 OT DIIS     0.15E+00    0.8     0.13029002       -54.4637586002 -4.40E-01
     3 OT SD       0.15E+00    0.8     0.08809761       -54.7618984242 -2.98E-01
     4 OT DIIS     0.15E+00    0.8     0.08270220       -54.5128853776  2.49E-01
     5 OT DIIS     0.15E+00    0.8     0.05688749       -54.9254896122 -4.13E-01
     6 OT DIIS     0.15E+00    0.8     0.05763831       -54.9352244365 -9.73E-03
     7 OT DIIS     0.15E+00    0.8     0.01355384       -54.9799087260 -4.47E-02
     8 OT DIIS     0.15E+00    0.8     0.02296112       -54.9767553079  3.15E-03
     9 OT DIIS     0.15E+00    0.8     0.00933407       -54.9839044469 -7.15E-03
    10 OT DIIS     0.15E+00    0.8     0.00314307       -54.9850768164 -1.17E-03
    11 OT DIIS     0.15E+00    0.8     0.00465618       -54.9850370802  3.97E-05
    12 OT DIIS     0.15E+00    0.8     0.00047352       -54.9852868280 -2.50E-04
    13 OT DIIS     0.15E+00    0.8     0.00027143       -54.9852941930 -7.36E-06
    14 OT DIIS     0.15E+00    0.8     0.00014756       -54.9852973407 -3.15E-06
    15 OT DIIS     0.15E+00    0.8     0.00006966       -54.9852979180 -5.77E-07
    16 OT DIIS     0.15E+00    0.8     0.00002297       -54.9852982022 -2.84E-07
    17 OT DIIS     0.15E+00    0.8     0.00001920       -54.9852982223 -2.01E-08
    18 OT DIIS     0.15E+00    0.8     0.00001715       -54.9852982248 -2.42E-09
    19 OT DIIS     0.15E+00    0.8     0.00000764       -54.9852982312 -6.45E-09
    20 OT DIIS     0.15E+00    0.8     0.00001022       -54.9852982311  1.56E-10
    21 OT DIIS     0.15E+00    0.8     0.00000232       -54.9852982325 -1.43E-09
    22 OT DIIS     0.15E+00    0.8     0.00000122       -54.9852982326 -1.28E-10
    23 OT DIIS     0.15E+00    0.8     0.00000083       -54.9852982327 -3.99E-11

  *** SCF run converged in    23 steps ***


  Electronic density on regular grids:        -23.9999999990        0.0000000010
  Core density on regular grids:               23.9999999991       -0.0000000009
  Total charge density on r-space grids:        0.0000000001
  Total charge density g-space grids:           0.0000000001

  Overlap energy of the core charge distribution:               0.00000215551964
  Self energy of the core charge distribution:               -140.73457708150062
  Core Hamiltonian energy:                                     40.55745196832775
  Hartree energy:                                              58.06077337403370
  Exchange-correlation energy:                                -12.86704609704704
  Dispersion energy:                                           -0.00190255198735

  Total energy:                                               -54.98529823265391

  outer SCF iter =    2 RMS gradient =   0.83E-06 energy =        -54.9852982327
  outer SCF loop converged in   2 iterations or   73 steps


 ENERGY| Total FORCE_EVAL ( QS ) energy (a.u.):              -54.985298232653911


 -------------------------------------------------------------------------------
 -                                                                             -
 -                                DBCSR STATISTICS                             -
 -                                                                             -
 -------------------------------------------------------------------------------
 COUNTER                                    TOTAL       BLAS       SMM       ACC
 flops     5 x     5 x    12               133200     100.0%      0.0%      0.0%
 flops    10 x    12 x    10               360000     100.0%      0.0%      0.0%
 flops     5 x    12 x     5               379200     100.0%      0.0%      0.0%
 flops    13 x     5 x    12               461760     100.0%      0.0%      0.0%
 flops     5 x    13 x    12               461760     100.0%      0.0%      0.0%
 flops    12 x    12 x    10               846720     100.0%      0.0%      0.0%
 flops    10 x    12 x    12              1056960     100.0%      0.0%      0.0%
 flops    13 x    12 x    10              1872000     100.0%      0.0%      0.0%
 flops    10 x    12 x    13              1872000     100.0%      0.0%      0.0%
 flops    13 x    12 x     5              1971840     100.0%      0.0%      0.0%
 flops     5 x    12 x    13              1971840     100.0%      0.0%      0.0%
 flops    12 x    12 x    12              2229120     100.0%      0.0%      0.0%
 flops    13 x    13 x    12              3001440     100.0%      0.0%      0.0%
 flops    12 x    12 x    13              4402944     100.0%      0.0%      0.0%
 flops    13 x    12 x    12              5496192     100.0%      0.0%      0.0%
 flops    13 x    12 x    13             19987968     100.0%      0.0%      0.0%
 flops inhomo. stacks                           0       0.0%      0.0%      0.0%
 flops total                        46.504944E+06     100.0%      0.0%      0.0%
 flops max/rank                     15.110928E+06     100.0%      0.0%      0.0%
 matmuls inhomo. stacks                         0       0.0%      0.0%      0.0%
 matmuls total                              14942     100.0%      0.0%      0.0%
 number of processed stacks                 13056     100.0%      0.0%      0.0%
 average stack size                                     1.1       0.0       0.0
 marketing flops                    49.309796E+06
 -------------------------------------------------------------------------------
 # multiplications                           1690
 max memory usage/rank             239.955968E+06
 # max total images/rank                        1
 # max 3D layers                                1
 # MPI messages exchanged                  338000
 MPI messages size (bytes):
  total size                        79.115008E+06
  min size                           0.000000E+00
  max size                           1.352000E+03
  average size                     234.068069E+00
 MPI breakdown and total messages size (bytes):
             size <=      128              272352                        0
       128 < size <=     8192               65648                 79115008
      8192 < size <=    32768                   0                        0
     32768 < size <=   131072                   0                        0
    131072 < size <=  4194304                   0                        0
   4194304 < size <= 16777216                   0                        0
  16777216 < size                               0                        0
 -------------------------------------------------------------------------------
 
 MEMORY| Estimated peak process memory [MiB]                                 230

 -------------------------------------------------------------------------------
 ----                             MULTIGRID INFO                            ----
 -------------------------------------------------------------------------------
 count for grid        1:         249233          cutoff [a.u.]          200.00
 count for grid        2:         106807          cutoff [a.u.]           66.67
 count for grid        3:          57371          cutoff [a.u.]           22.22
 count for grid        4:          16016          cutoff [a.u.]            7.41
 total gridlevel count  :         429427

 -------------------------------------------------------------------------------
 -                                                                             -
 -                         MESSAGE PASSING PERFORMANCE                         -
 -                                                                             -
 -------------------------------------------------------------------------------

 ROUTINE             CALLS      AVE VOLUME [Bytes]
 MP_Group              105
 MP_Bcast             1779                 310640.
 MP_Allreduce         8456                    107.
 MP_Sync                83
 MP_Alltoall          7144                2169268.
 MP_ISendRecv         7056                  59520.
 MP_Wait            112018
 MP_comm_split          79
 MP_ISend            42935                  55172.
 MP_IRecv            42935                  55121.
 MP_Recv                12                   1488.
 MP_Memory           66832
 -------------------------------------------------------------------------------


 -------------------------------------------------------------------------------
 -                                                                             -
 -                           R E F E R E N C E S                               -
 -                                                                             -
 -------------------------------------------------------------------------------
 
 CP2K version 5.1, the CP2K developers group (2017).
 CP2K is freely available from https://www.cp2k.org/ .

 Schuett, Ole; Messmer, Peter; Hutter, Juerg; VandeVondele, Joost. 
 Electronic Structure Calculations on Graphics Processing Units, John Wiley & Sons, Ltd, 173-190 (2016). 
 GPU-Accelerated Sparse Matrix-Matrix Multiplication for Linear Scaling Density Functional Theory.
 http://dx.doi.org/10.1002/9781118670712.ch8


 Borstnik, U; VandeVondele, J; Weber, V; Hutter, J. 
 PARALLEL COMPUTING, 40 (5-6), 47-58 (2014). 
 Sparse matrix multiplication: The distributed block-compressed sparse
 row library.
 http://dx.doi.org/10.1016/j.parco.2014.03.012


 Hutter, J; Iannuzzi, M; Schiffmann, F; VandeVondele, J. 
 WILEY INTERDISCIPLINARY REVIEWS-COMPUTATIONAL MOLECULAR SCIENCE, 4 (1), 15-25 (2014). 
 CP2K: atomistic simulations of condensed matter systems.
 http://dx.doi.org/10.1002/wcms.1159


 Grimme, S; Ehrlich, S; Goerigk, L. 
 JOURNAL OF COMPUTATIONAL CHEMISTRY, 32, 1456 (2011). 
 Effect of the damping function in dispersion corrected density functional theory.
 http://dx.doi.org/10.1002/jcc.21759


 Grimme, S; Antony, J; Ehrlich, S; Krieg, H. 
 JOURNAL OF CHEMICAL PHYSICS, 132 (15), 154104 (2010). 
 A consistent and accurate ab initio parametrization of density
 functional dispersion correction (DFT-D) for the 94 elements H-Pu.
 http://dx.doi.org/10.1063/1.3382344


 VandeVondele, J; Hutter, J. 
 JOURNAL OF CHEMICAL PHYSICS, 127 (11), 114105 (2007). 
 Gaussian basis sets for accurate calculations on molecular systems in
 gas and condensed phases.
 http://dx.doi.org/10.1063/1.2770708


 Krack, M. 
 THEORETICAL CHEMISTRY ACCOUNTS, 114 (1-3), 145-152 (2005). 
 Pseudopotentials for H to Kr optimized for gradient-corrected
 exchange-correlation functionals.
 http://dx.doi.org/10.1007/s00214-005-0655-y


 VandeVondele, J; Krack, M; Mohamed, F; Parrinello, M; Chassaing, T;
 Hutter, J. COMPUTER PHYSICS COMMUNICATIONS, 167 (2), 103-128 (2005). 
 QUICKSTEP: Fast and accurate density functional calculations using a
 mixed Gaussian and plane waves approach.
 http://dx.doi.org/10.1016/j.cpc.2004.12.014


 Frigo, M; Johnson, SG. 
 PROCEEDINGS OF THE IEEE, 93 (2), 216-231 (2005). 
 The design and implementation of FFTW3.
 http://dx.doi.org/10.1109/JPROC.2004.840301


 VandeVondele, J; Hutter, J. 
 JOURNAL OF CHEMICAL PHYSICS, 118 (10), 4365-4369 (2003). 
 An efficient orbital transformation method for electronic structure
 calculations.
 http://dx.doi.org/10.1063/1.1543154


 Hartwigsen, C; Goedecker, S; Hutter, J. 
 PHYSICAL REVIEW B, 58 (7), 3641-3662 (1998). 
 Relativistic separable dual-space Gaussian pseudopotentials from H to Rn.
 http://dx.doi.org/10.1103/PhysRevB.58.3641


 Lippert, G; Hutter, J; Parrinello, M. 
 MOLECULAR PHYSICS, 92 (3), 477-487 (1997). 
 A hybrid Gaussian and plane wave density functional scheme.
 http://dx.doi.org/10.1080/002689797170220


 Perdew, JP; Burke, K; Ernzerhof, M. 
 PHYSICAL REVIEW LETTERS, 77 (18), 3865-3868 (1996). 
 Generalized gradient approximation made simple.
 http://dx.doi.org/10.1103/PhysRevLett.77.3865


 Goedecker, S; Teter, M; Hutter, J. 
 PHYSICAL REVIEW B, 54 (3), 1703-1710 (1996). 
 Separable dual-space Gaussian pseudopotentials.
 http://dx.doi.org/10.1103/PhysRevB.54.1703


 -------------------------------------------------------------------------------
 -                                                                             -
 -                                T I M I N G                                  -
 -                                                                             -
 -------------------------------------------------------------------------------
 SUBROUTINE                       CALLS  ASD         SELF TIME        TOTAL TIME
                                MAXIMUM       AVERAGE  MAXIMUM  AVERAGE  MAXIMUM
 CP2K                                 1  1.0    0.065    0.082   60.353   60.353
 qs_energies                          1  2.0    0.012    0.022   59.501   59.507
 scf_env_do_scf                       1  3.0    0.001    0.005   58.633   58.633
 scf_env_do_scf_inner_loop           73  4.0    0.006    0.011   57.286   57.291
 qs_ks_update_qs_env                 75  5.0    0.001    0.001   44.685   44.689
 rebuild_ks_matrix                   73  6.0    0.000    0.000   44.682   44.686
 qs_ks_build_kohn_sham_matrix        73  7.0    0.021    0.030   44.682   44.686
 pw_transfer                       1393  9.6    0.097    0.124   39.803   41.694
 fft_wrap_pw1pw2                   1247 10.7    0.011    0.014   39.309   41.215
 fft_wrap_pw1pw2_200                806 11.8    2.507    2.978   38.262   40.298
 fft3d_ps                          1247 12.7   21.425   24.509   31.625   34.100
 qs_vxc_create                       73  8.0    0.002    0.005   30.323   30.788
 xc_vxc_pw_create                    73  9.0    0.259    0.305   30.321   30.787
 xc_rho_set_and_dset_create          73 10.0    0.124    0.142   14.251   15.553
 mp_alltoall_z22v                  1247 14.7    6.937   14.312    6.937   14.312
 qs_rho_update_rho                   74  5.0    0.002    0.002   12.570   12.572
 calculate_rho_elec                  74  6.0    0.189    0.992   12.568   12.570
 density_rs2pw                       74  7.0    0.004    0.005   11.540   11.810
 yz_to_x                            589 13.1    0.870    1.112    5.162   10.128
 sum_up_and_integrate                73  8.0    0.221    0.248    8.999    9.149
 integrate_v_rspace                  73  9.0    0.074    0.567    8.778    8.963
 rs_pw_transfer                     589  9.5    0.006    0.008    8.345    8.478
 potential_pw2rs                     73 10.0    0.010    0.011    8.348    8.385
 x_to_yz                            658 14.2    2.370    2.705    5.015    6.899
 xc_functional_eval                  73 11.0    0.001    0.001    2.348    3.688
 pbe_lda_eval                        73 12.0    2.347    3.688    2.347    3.688
 pw_scatter_p                       658 13.2    2.840    3.399    2.840    3.399
 rs_pw_transfer_PW2RS_200            73 12.0    2.062    2.243    2.996    3.192
 rs_pw_transfer_RS2PW_200            75  9.0    1.891    2.208    2.840    3.067
 pw_gather_p                        589 12.1    2.247    2.506    2.247    2.506
 mp_waitany                        9143 11.5    1.892    2.468    1.892    2.468
 pw_derive                          438 10.5    1.694    2.083    1.694    2.083
 dbcsr_multiply_generic            1690 10.2    0.058    0.066    1.277    1.695
 mp_sum_d                          2560  9.3    0.603    1.460    0.603    1.460
 qs_scf_new_mos                      73  5.0    0.000    0.000    1.413    1.416
 qs_scf_loop_do_ot                   73  6.0    0.001    0.004    1.413    1.416
 rs_pw_transfer_PW2RS_70             73 12.0    0.601    0.707    1.088    1.369
 ot_scf_mini                         73  7.0    0.003    0.006    1.361    1.365
 init_scf_loop                        2  4.0    0.002    0.008    1.343    1.347
 pw_poisson_solve                    73  8.0    0.835    0.876    1.315    1.316
 pw_copy                            803 10.5    1.147    1.287    1.147    1.287
 -------------------------------------------------------------------------------

 The number of warnings for this run is : 0
 
 -------------------------------------------------------------------------------
  **** **** ******  **  PROGRAM ENDED AT                 2018-10-05 10:14:05.263
 ***** ** ***  *** **   PROGRAM RAN ON                                      f199
 **    ****   ******    PROGRAM RAN BY                                     macer
 ***** **    ** ** **   PROGRAM PROCESS ID                                 12946
  **** **  *******  **  PROGRAM STOPPED IN /home/macer/H2OCO2 folder/both_from_n
                                           ew_wfn
 DBCSR| Multiplication driver                                               BLAS
 DBCSR| Multrec recursion limit                                              512
 DBCSR| Multiplication stack size                                           1000
 DBCSR| Maximum elements for images                                    UNLIMITED
 DBCSR| Multiplicative factor virtual images                                   1
 DBCSR| Multiplication size stacks                                             3
 DBCSR| Number of 3D layers                                               SINGLE
 DBCSR| Use MPI memory allocation                                              T
 DBCSR| Use RMA algorithm                                                      F
 DBCSR| Use Communication thread                                               T
 DBCSR| Communication thread load                                             87


  **** **** ******  **  PROGRAM STARTED AT               2018-10-05 10:28:33.827
 ***** ** ***  *** **   PROGRAM STARTED ON                                  f103
 **    ****   ******    PROGRAM STARTED BY                                 macer
 ***** **    ** ** **   PROGRAM PROCESS ID                                 22768
  **** **  *******  **  PROGRAM STARTED IN /home/macer/H2OCO2 folder/both_from_n
                                           ew_wfn

 CP2K| version string:                                          CP2K version 5.1
 CP2K| source code revision number:                                    svn:18091
 CP2K| cp2kflags: libint fftw3 pexsi parallel mpi3 scalapack libderiv_max_am1=5 
 CP2K|            libint_max_am=6
 CP2K| is freely available from                            https://www.cp2k.org/
 CP2K| Program compiled at                          Thu Jul 5 11:15:01 CEST 2018
 CP2K| Program compiled on                                                  f016
 CP2K| Program compiled for                  linux-rhel7-x86_E5v4_Mellanox-intel
 CP2K| Data directory path    /dev/shm/scitasbuild/spack-stage/spack-stage-ZDQwS
 CP2K| Input file name                                                  CP2K.inp
 
 GLOBAL| Force Environment number                                              1
 GLOBAL| Basis set file name                                      ./BASIS_MOLOPT
 GLOBAL| Potential file name                                    ./GTH_POTENTIALS
 GLOBAL| MM Potential file name                                     MM_POTENTIAL
 GLOBAL| Coordinate file name                                      __STD_INPUT__
 GLOBAL| Method name                                                        CP2K
 GLOBAL| Project name                                                       cp2k
 GLOBAL| Preferred FFT library                                             FFTW3
 GLOBAL| Preferred diagonalization lib.                                       SL
 GLOBAL| Run type                                                         ENERGY
 GLOBAL| All-to-all communication in single precision                          F
 GLOBAL| FFTs using library dependent lengths                                  F
 GLOBAL| Global print level                                               MEDIUM
 GLOBAL| Total number of message passing processes                            25
 GLOBAL| Number of threads for this process                                    1
 GLOBAL| This output is from process                                           0
 GLOBAL| CPU model name :  Intel(R) Xeon(R) CPU E5-2690 v4 @ 2.60GHz

 MEMORY| system memory details [Kb]
 MEMORY|                        rank 0           min           max       average
 MEMORY| MemTotal            131627068     131627068     131627068     131627068
 MEMORY| MemFree             114589888     114589888     114589888     114589888
 MEMORY| Buffers                  2392          2392          2392          2392
 MEMORY| Cached                 196832        196832        196832        196832
 MEMORY| Slab                  1712932       1712932       1712932       1712932
 MEMORY| SReclaimable           252844        252844        252844        252844
 MEMORY| MemLikelyFree       115041956     115041956     115041956     115041956


 *** Fundamental physical constants (SI units) ***

 *** Literature: B. J. Mohr and B. N. Taylor,
 ***             CODATA recommended values of the fundamental physical
 ***             constants: 2006, Web Version 5.1
 ***             http://physics.nist.gov/constants

 Speed of light in vacuum [m/s]                             2.99792458000000E+08
 Magnetic constant or permeability of vacuum [N/A**2]       1.25663706143592E-06
 Electric constant or permittivity of vacuum [F/m]          8.85418781762039E-12
 Planck constant (h) [J*s]                                  6.62606896000000E-34
 Planck constant (h-bar) [J*s]                              1.05457162825177E-34
 Elementary charge [C]                                      1.60217648700000E-19
 Electron mass [kg]                                         9.10938215000000E-31
 Electron g factor [ ]                                     -2.00231930436220E+00
 Proton mass [kg]                                           1.67262163700000E-27
 Fine-structure constant                                    7.29735253760000E-03
 Rydberg constant [1/m]                                     1.09737315685270E+07
 Avogadro constant [1/mol]                                  6.02214179000000E+23
 Boltzmann constant [J/K]                                   1.38065040000000E-23
 Atomic mass unit [kg]                                      1.66053878200000E-27
 Bohr radius [m]                                            5.29177208590000E-11

 *** Conversion factors ***

 [u] -> [a.u.]                                              1.82288848426455E+03
 [Angstrom] -> [Bohr] = [a.u.]                              1.88972613288564E+00
 [a.u.] = [Bohr] -> [Angstrom]                              5.29177208590000E-01
 [a.u.] -> [s]                                              2.41888432650478E-17
 [a.u.] -> [fs]                                             2.41888432650478E-02
 [a.u.] -> [J]                                              4.35974393937059E-18
 [a.u.] -> [N]                                              8.23872205491840E-08
 [a.u.] -> [K]                                              3.15774647902944E+05
 [a.u.] -> [kJ/mol]                                         2.62549961709828E+03
 [a.u.] -> [kcal/mol]                                       6.27509468713739E+02
 [a.u.] -> [Pa]                                             2.94210107994716E+13
 [a.u.] -> [bar]                                            2.94210107994716E+08
 [a.u.] -> [atm]                                            2.90362800883016E+08
 [a.u.] -> [eV]                                             2.72113838565563E+01
 [a.u.] -> [Hz]                                             6.57968392072181E+15
 [a.u.] -> [1/cm] (wave numbers)                            2.19474631370540E+05
 [a.u./Bohr**2] -> [1/cm]                                   5.14048714338585E+03
 

 CELL_TOP| Volume [angstrom^3]:                                         3375.000
 CELL_TOP| Vector a [angstrom    15.000     0.000     0.000    |a| =      15.000
 CELL_TOP| Vector b [angstrom     0.000    15.000     0.000    |b| =      15.000
 CELL_TOP| Vector c [angstrom     0.000     0.000    15.000    |c| =      15.000
 CELL_TOP| Angle (b,c), alpha [degree]:                                   90.000
 CELL_TOP| Angle (a,c), beta  [degree]:                                   90.000
 CELL_TOP| Angle (a,b), gamma [degree]:                                   90.000
 CELL_TOP| Numerically orthorhombic:                                         YES
 
 GENERATE|  Preliminary Number of Bonds generated:                             0
 GENERATE|  Achieved consistency in connectivity generation.

 CELL| Volume [angstrom^3]:                                             3375.000
 CELL| Vector a [angstrom]:      15.000     0.000     0.000    |a| =      15.000
 CELL| Vector b [angstrom]:       0.000    15.000     0.000    |b| =      15.000
 CELL| Vector c [angstrom]:       0.000     0.000    15.000    |c| =      15.000
 CELL| Angle (b,c), alpha [degree]:                                       90.000
 CELL| Angle (a,c), beta  [degree]:                                       90.000
 CELL| Angle (a,b), gamma [degree]:                                       90.000
 CELL| Numerically orthorhombic:                                             YES

 CELL_REF| Volume [angstrom^3]:                                         3375.000
 CELL_REF| Vector a [angstrom    15.000     0.000     0.000    |a| =      15.000
 CELL_REF| Vector b [angstrom     0.000    15.000     0.000    |b| =      15.000
 CELL_REF| Vector c [angstrom     0.000     0.000    15.000    |c| =      15.000
 CELL_REF| Angle (b,c), alpha [degree]:                                   90.000
 CELL_REF| Angle (a,c), beta  [degree]:                                   90.000
 CELL_REF| Angle (a,b), gamma [degree]:                                   90.000
 CELL_REF| Numerically orthorhombic:                                         YES

 *******************************************************************************
 *******************************************************************************
 **                                                                           **
 **     #####                         ##              ##                      **
 **    ##   ##            ##          ##              ##                      **
 **   ##     ##                       ##            ######                    **
 **   ##     ##  ##   ##  ##   #####  ##  ##   ####   ##    #####    #####    **
 **   ##     ##  ##   ##  ##  ##      ## ##   ##      ##   ##   ##  ##   ##   **
 **   ##  ## ##  ##   ##  ##  ##      ####     ###    ##   ######   ######    **
 **    ##  ###   ##   ##  ##  ##      ## ##      ##   ##   ##       ##        **
 **     #######   #####   ##   #####  ##  ##  ####    ##    #####   ##        **
 **           ##                                                    ##        **
 **                                                                           **
 **                                                ... make the atoms dance   **
 **                                                                           **
[...]
 RS_GRID|   Distribution                         Average         Max         Min
 RS_GRID|   Planes                                  71.6          72          71

 RS_GRID| Information for grid number                                          3
 RS_GRID|   Bounds   1            -32      31                Points:          64
 RS_GRID|   Bounds   2            -32      31                Points:          64
 RS_GRID|   Bounds   3            -32      31                Points:          64
 RS_GRID| Real space fully replicated
 RS_GRID| Group size                                                           1

 RS_GRID| Information for grid number                                          4
 RS_GRID|   Bounds   1            -18      17                Points:          36
 RS_GRID|   Bounds   2            -18      17                Points:          36
 RS_GRID|   Bounds   3            -18      17                Points:          36
 RS_GRID| Real space fully replicated
 RS_GRID| Group size                                                           1

 DISTRIBUTION OF THE PARTICLES (ROWS)
              Process row      Number of particles         Number of matrix rows
                        0                        1                            -1
                        1                        1                            -1
                        2                        2                            -1
                        3                        1                            -1
                        4                        1                            -1
                      Sum                        6                            -1

 DISTRIBUTION OF THE PARTICLES (COLUMNS)
              Process col      Number of particles      Number of matrix columns
                        0                        1                            -1
                        1                        1                            -1
                        2                        2                            -1
                        3                        1                            -1
                        4                        1                            -1
                      Sum                        6                            -1

 DISTRIBUTION OF THE NEIGHBOR LISTS
              Total number of particle pairs:                                 22
              Total number of matrix elements:                              2350
              Average number of particle pairs:                                1
              Maximum number of particle pairs:                                3
              Average number of matrix element:                               94
              Maximum number of matrix elements:                             169


 DISTRIBUTION OF THE OVERLAP MATRIX
              Number  of non-zero blocks:                                     21
              Percentage non-zero blocks:                                 100.00
              Average number of blocks per CPU:                                1
              Maximum number of blocks per CPU:                                3
              Average number of matrix elements per CPU:                      99
              Maximum number of matrix elements per CPU:                     179

 Number of electrons:                                                         24
 Number of occupied orbitals:                                                 12
 Number of molecular orbitals:                                                12

 Number of orbital functions:                                                 62
 Number of independent orbital functions:                                     62

 Extrapolation method: initial_guess


 SCF WAVEFUNCTION OPTIMIZATION

  ----------------------------------- OT ---------------------------------------
  Minimizer      : DIIS                : direct inversion
                                         in the iterative subspace
                                         using   7 DIIS vectors
                                         safer DIIS on
  Preconditioner : FULL_ALL            : diagonalization, state selective
  Precond_solver : DEFAULT
  stepsize       :    0.15000000                  energy_gap     :    0.08000000
  eps_taylor     :   0.10000E-15                  max_taylor     :             4
  ----------------------------------- OT ---------------------------------------

  Step     Update method      Time    Convergence         Total energy    Change
  ------------------------------------------------------------------------------
     1 OT DIIS     0.15E+00    0.7     0.00266900       -54.9846931225 -5.50E+01
     2 OT DIIS     0.15E+00    0.8     0.00108667       -54.9852064582 -5.13E-04
     3 OT DIIS     0.15E+00    0.8     0.00077836       -54.9852773314 -7.09E-05
     4 OT DIIS     0.15E+00    0.8     0.00008709       -54.9852978527 -2.05E-05
     5 OT DIIS     0.15E+00    0.8     0.00002036       -54.9852982199 -3.67E-07
     6 OT DIIS     0.15E+00    0.8     0.00002092       -54.9852982230 -3.05E-09
     7 OT DIIS     0.15E+00    0.8     0.00000099       -54.9852982326 -9.64E-09

  *** SCF run converged in     7 steps ***


  Electronic density on regular grids:        -23.9999999990        0.0000000010
  Core density on regular grids:               23.9999999991       -0.0000000009
  Total charge density on r-space grids:        0.0000000001
  Total charge density g-space grids:           0.0000000001

  Overlap energy of the core charge distribution:               0.00000215551964
  Self energy of the core charge distribution:               -140.73457708150062
  Core Hamiltonian energy:                                     40.55745905094186
  Hartree energy:                                              58.06076723332617
  Exchange-correlation energy:                                -12.86704703891464
  Dispersion energy:                                           -0.00190255198735

  Total energy:                                               -54.98529823261494

  outer SCF iter =    1 RMS gradient =   0.99E-06 energy =        -54.9852982326
  outer SCF loop converged in   1 iterations or    7 steps


 ENERGY| Total FORCE_EVAL ( QS ) energy (a.u.):              -54.985298232614937


 -------------------------------------------------------------------------------
 -                                                                             -
 -                                DBCSR STATISTICS                             -
 -                                                                             -
 -------------------------------------------------------------------------------
 COUNTER                                    TOTAL       BLAS       SMM       ACC
 flops     5 x     5 x    12                14400     100.0%      0.0%      0.0%
 flops    10 x    12 x    10                38400     100.0%      0.0%      0.0%
 flops     5 x    12 x     5                48000     100.0%      0.0%      0.0%
 flops    13 x     5 x    12                49920     100.0%      0.0%      0.0%
 flops     5 x    13 x    12                49920     100.0%      0.0%      0.0%
 flops    12 x    12 x    10                83520     100.0%      0.0%      0.0%
 flops    10 x    12 x    12               103680     100.0%      0.0%      0.0%
 flops    12 x    12 x    12               131328     100.0%      0.0%      0.0%
 flops    13 x    12 x    10               199680     100.0%      0.0%      0.0%
 flops    10 x    12 x    13               199680     100.0%      0.0%      0.0%
 flops    13 x    12 x     5               249600     100.0%      0.0%      0.0%
 flops     5 x    12 x    13               249600     100.0%      0.0%      0.0%
 flops    13 x    13 x    12               324480     100.0%      0.0%      0.0%
 flops    12 x    12 x    13               434304     100.0%      0.0%      0.0%
 flops    13 x    12 x    12               539136     100.0%      0.0%      0.0%
 flops    13 x    12 x    13              2336256     100.0%      0.0%      0.0%
 flops inhomo. stacks                           0       0.0%      0.0%      0.0%
 flops total                         5.051904E+06     100.0%      0.0%      0.0%
 flops max/rank                      1.512768E+06     100.0%      0.0%      0.0%
 matmuls inhomo. stacks                         0       0.0%      0.0%      0.0%
 matmuls total                               1651     100.0%      0.0%      0.0%
 number of processed stacks                  1415     100.0%      0.0%      0.0%
 average stack size                                     1.2       0.0       0.0
 marketing flops                     5.369081E+06
 -------------------------------------------------------------------------------
 # multiplications                            148
 max memory usage/rank             238.452736E+06
 # max total images/rank                        1
 # max 3D layers                                1
 # MPI messages exchanged                   29600
 MPI messages size (bytes):
  total size                         8.420352E+06
  min size                           0.000000E+00
  max size                           1.352000E+03
  average size                     284.471344E+00
 MPI breakdown and total messages size (bytes):
             size <=      128               22632                        0
       128 < size <=     8192                6968                  8420352
      8192 < size <=    32768                   0                        0
     32768 < size <=   131072                   0                        0
    131072 < size <=  4194304                   0                        0
   4194304 < size <= 16777216                   0                        0
  16777216 < size                               0                        0
 -------------------------------------------------------------------------------
 
 MEMORY| Estimated peak process memory [MiB]                                 228

 -------------------------------------------------------------------------------
 ----                             MULTIGRID INFO                            ----
 -------------------------------------------------------------------------------
 count for grid        1:         249233          cutoff [a.u.]          200.00
 count for grid        2:         106807          cutoff [a.u.]           66.67
 count for grid        3:          57371          cutoff [a.u.]           22.22
 count for grid        4:          16016          cutoff [a.u.]            7.41
 total gridlevel count  :         429427

 -------------------------------------------------------------------------------
 -                                                                             -
 -                         MESSAGE PASSING PERFORMANCE                         -
 -                                                                             -
 -------------------------------------------------------------------------------

 ROUTINE             CALLS      AVE VOLUME [Bytes]
 MP_Group               18
 MP_Bcast              164                3365757.
 MP_Allreduce          574                   1148.
 MP_Sync                 7
 MP_Alltoall           775                1987088.
 MP_ISendRecv          720                  59520.
 MP_Wait             10090
 MP_comm_split           3
 MP_ISend             3915                  64302.
 MP_IRecv             3915                  64354.
 MP_Recv                 3                   1488.
 MP_Memory            5780
 -------------------------------------------------------------------------------


 -------------------------------------------------------------------------------
 -                                                                             -
 -                           R E F E R E N C E S                               -
 -                                                                             -
 -------------------------------------------------------------------------------
 
 CP2K version 5.1, the CP2K developers group (2017).
 CP2K is freely available from https://www.cp2k.org/ .

 Schuett, Ole; Messmer, Peter; Hutter, Juerg; VandeVondele, Joost. 
 Electronic Structure Calculations on Graphics Processing Units, John Wiley & Sons, Ltd, 173-190 (2016). 
 GPU-Accelerated Sparse Matrix-Matrix Multiplication for Linear Scaling Density Functional Theory.
 http://dx.doi.org/10.1002/9781118670712.ch8


 Borstnik, U; VandeVondele, J; Weber, V; Hutter, J. 
 PARALLEL COMPUTING, 40 (5-6), 47-58 (2014). 
 Sparse matrix multiplication: The distributed block-compressed sparse
 row library.
 http://dx.doi.org/10.1016/j.parco.2014.03.012


 Hutter, J; Iannuzzi, M; Schiffmann, F; VandeVondele, J. 
 WILEY INTERDISCIPLINARY REVIEWS-COMPUTATIONAL MOLECULAR SCIENCE, 4 (1), 15-25 (2014). 
 CP2K: atomistic simulations of condensed matter systems.
 http://dx.doi.org/10.1002/wcms.1159


 Grimme, S; Ehrlich, S; Goerigk, L. 
 JOURNAL OF COMPUTATIONAL CHEMISTRY, 32, 1456 (2011). 
 Effect of the damping function in dispersion corrected density functional theory.
 http://dx.doi.org/10.1002/jcc.21759


 Grimme, S; Antony, J; Ehrlich, S; Krieg, H. 
 JOURNAL OF CHEMICAL PHYSICS, 132 (15), 154104 (2010). 
 A consistent and accurate ab initio parametrization of density
 functional dispersion correction (DFT-D) for the 94 elements H-Pu.
 http://dx.doi.org/10.1063/1.3382344


 VandeVondele, J; Hutter, J. 
 JOURNAL OF CHEMICAL PHYSICS, 127 (11), 114105 (2007). 
 Gaussian basis sets for accurate calculations on molecular systems in
 gas and condensed phases.
 http://dx.doi.org/10.1063/1.2770708


 Krack, M. 
 THEORETICAL CHEMISTRY ACCOUNTS, 114 (1-3), 145-152 (2005). 
 Pseudopotentials for H to Kr optimized for gradient-corrected
 exchange-correlation functionals.
 http://dx.doi.org/10.1007/s00214-005-0655-y


 VandeVondele, J; Krack, M; Mohamed, F; Parrinello, M; Chassaing, T;
 Hutter, J. COMPUTER PHYSICS COMMUNICATIONS, 167 (2), 103-128 (2005). 
 QUICKSTEP: Fast and accurate density functional calculations using a
 mixed Gaussian and plane waves approach.
 http://dx.doi.org/10.1016/j.cpc.2004.12.014


 Frigo, M; Johnson, SG. 
 PROCEEDINGS OF THE IEEE, 93 (2), 216-231 (2005). 
 The design and implementation of FFTW3.
 http://dx.doi.org/10.1109/JPROC.2004.840301


 VandeVondele, J; Hutter, J. 
 JOURNAL OF CHEMICAL PHYSICS, 118 (10), 4365-4369 (2003). 
 An efficient orbital transformation method for electronic structure
 calculations.
 http://dx.doi.org/10.1063/1.1543154


 Hartwigsen, C; Goedecker, S; Hutter, J. 
 PHYSICAL REVIEW B, 58 (7), 3641-3662 (1998). 
 Relativistic separable dual-space Gaussian pseudopotentials from H to Rn.
 http://dx.doi.org/10.1103/PhysRevB.58.3641


 Lippert, G; Hutter, J; Parrinello, M. 
 MOLECULAR PHYSICS, 92 (3), 477-487 (1997). 
 A hybrid Gaussian and plane wave density functional scheme.
 http://dx.doi.org/10.1080/002689797170220


 Perdew, JP; Burke, K; Ernzerhof, M. 
 PHYSICAL REVIEW LETTERS, 77 (18), 3865-3868 (1996). 
 Generalized gradient approximation made simple.
 http://dx.doi.org/10.1103/PhysRevLett.77.3865


 Goedecker, S; Teter, M; Hutter, J. 
 PHYSICAL REVIEW B, 54 (3), 1703-1710 (1996). 
 Separable dual-space Gaussian pseudopotentials.
 http://dx.doi.org/10.1103/PhysRevB.54.1703


 -------------------------------------------------------------------------------
 -                                                                             -
 -                                T I M I N G                                  -
 -                                                                             -
 -------------------------------------------------------------------------------
 SUBROUTINE                       CALLS  ASD         SELF TIME        TOTAL TIME
                                MAXIMUM       AVERAGE  MAXIMUM  AVERAGE  MAXIMUM
 CP2K                                 1  1.0    0.059    0.083    6.952    6.956
 qs_energies                          1  2.0    0.013    0.019    6.188    6.193
 scf_env_do_scf                       1  3.0    0.001    0.002    5.709    5.710
 scf_env_do_scf_inner_loop            7  4.0    0.001    0.002    5.017    5.018
 qs_ks_update_qs_env                  8  5.0    0.000    0.000    4.314    4.316
 rebuild_ks_matrix                    7  6.0    0.001    0.003    4.314    4.316
 qs_ks_build_kohn_sham_matrix         7  7.0    0.013    0.021    4.313    4.315
 pw_transfer                        139  9.5    0.010    0.013    3.972    4.144
 fft_wrap_pw1pw2                    125 10.6    0.001    0.001    3.924    4.096
 fft_wrap_pw1pw2_200                 80 11.7    0.254    0.297    3.809    3.992
 fft3d_ps                           125 12.6    2.132    2.402    3.154    3.365
 qs_vxc_create                        7  8.0    0.000    0.002    2.900    2.948
 xc_vxc_pw_create                     7  9.0    0.026    0.031    2.899    2.948
 xc_rho_set_and_dset_create           7 10.0    0.012    0.014    1.354    1.485
 qs_rho_update_rho                    8  5.0    0.001    0.002    1.373    1.374
 calculate_rho_elec                   8  6.0    0.020    0.107    1.371    1.372
 mp_alltoall_z22v                   125 14.6    0.702    1.360    0.702    1.360
 density_rs2pw                        8  7.0    0.001    0.001    1.260    1.292
 yz_to_x                             61 13.0    0.088    0.121    0.529    0.978
 rs_pw_transfer                      61  9.3    0.001    0.001    0.889    0.903
 sum_up_and_integrate                 7  8.0    0.021    0.026    0.883    0.900
 integrate_v_rspace                   7  9.0    0.014    0.063    0.862    0.881
 potential_pw2rs                      7 10.0    0.001    0.001    0.814    0.817
 init_scf_loop                        1  4.0    0.001    0.003    0.690    0.691
 x_to_yz                             64 14.2    0.228    0.265    0.490    0.651
 qs_init_subsys                       1  2.0    0.006    0.010    0.431    0.436
 rs_pw_transfer_RS2PW_200             9  8.8    0.222    0.253    0.338    0.360
 xc_functional_eval                   7 11.0    0.000    0.000    0.217    0.347
 pbe_lda_eval                         7 12.0    0.217    0.347    0.217    0.347
 pw_scatter_p                        64 13.2    0.277    0.315    0.277    0.315
 rs_pw_transfer_PW2RS_200             7 12.0    0.190    0.212    0.284    0.306
 mp_waitany                         959 11.3    0.218    0.272    0.218    0.272
 init_scf_run                         1  3.0    0.001    0.008    0.266    0.269
 scf_env_initial_rho_setup            1  4.0    0.001    0.004    0.264    0.266
 pw_gather_p                         61 12.0    0.230    0.245    0.230    0.245
 qs_env_setup                         1  3.0    0.005    0.008    0.231    0.236
 qs_env_rebuild_pw_env                2  3.5    0.003    0.004    0.220    0.224
 pw_env_rebuild                       1  5.0    0.005    0.007    0.216    0.220
 pw_derive                           42 10.5    0.160    0.198    0.160    0.198
 dbcsr_multiply_generic             148  9.9    0.009    0.012    0.151    0.197
 qs_energies_init_hamiltonians        1  3.0    0.003    0.008    0.181    0.184
 mp_sum_d                           555  3.2    0.071    0.167    0.071    0.167
 -------------------------------------------------------------------------------

 The number of warnings for this run is : 0
 
 -------------------------------------------------------------------------------
  **** **** ******  **  PROGRAM ENDED AT                 2018-10-05 10:28:42.371
 ***** ** ***  *** **   PROGRAM RAN ON                                      f103
 **    ****   ******    PROGRAM RAN BY                                     macer
 ***** **    ** ** **   PROGRAM PROCESS ID                                 22768
  **** **  *******  **  PROGRAM STOPPED IN /home/macer/H2OCO2 folder/both_from_n
                                           ew_wfn
