 DBCSR| Multiplication driver                                               BLAS
 DBCSR| Multrec recursion limit                                              512
 DBCSR| Multiplication stack size                                           1000
 DBCSR| Maximum elements for images                                    UNLIMITED
 DBCSR| Multiplicative factor virtual images                                   1
 DBCSR| Multiplication size stacks                                             3
 DBCSR| Number of 3D layers                                               SINGLE
 DBCSR| Use MPI memory allocation                                              T
 DBCSR| Use RMA algorithm                                                      F
 DBCSR| Use Communication thread                                               T
 DBCSR| Communication thread load                                             87


  **** **** ******  **  PROGRAM STARTED AT               2018-10-11 08:10:06.280
 ***** ** ***  *** **   PROGRAM STARTED ON                                  g013
 **    ****   ******    PROGRAM STARTED BY                                 macer
 ***** **    ** ** **   PROGRAM PROCESS ID                                 27923
  **** **  *******  **  PROGRAM STARTED IN  /home/macer/7_CuTDPAT-CO2/5_combined

 CP2K| version string:                                          CP2K version 5.1
 CP2K| source code revision number:                                    svn:18091
 CP2K| cp2kflags: libint fftw3 pexsi parallel mpi3 scalapack libderiv_max_am1=5 
 CP2K|            libint_max_am=6
 CP2K| is freely available from                            https://www.cp2k.org/
 CP2K| Program compiled at                          Thu Jul 5 10:57:58 CEST 2018
 CP2K| Program compiled on                                                  g005
 CP2K| Program compiled for                  linux-rhel7-x86_S6g1_Mellanox-intel
 CP2K| Data directory path    /dev/shm/scitasbuild/spack-stage/spack-stage-Kdd_n
 CP2K| Input file name                                                  CP2K.inp
 
 GLOBAL| Force Environment number                                              1
 GLOBAL| Basis set file name                                      ./BASIS_MOLOPT
 GLOBAL| Potential file name                                    ./GTH_POTENTIALS
 GLOBAL| MM Potential file name                                     MM_POTENTIAL
 GLOBAL| Coordinate file name                                      __STD_INPUT__
 GLOBAL| Method name                                                        CP2K
 GLOBAL| Project name                                                       cp2k
 GLOBAL| Preferred FFT library                                             FFTW3
 GLOBAL| Preferred diagonalization lib.                                       SL
 GLOBAL| Run type                                                         ENERGY
 GLOBAL| All-to-all communication in single precision                          F
 GLOBAL| FFTs using library dependent lengths                                  F
 GLOBAL| Global print level                                               MEDIUM
 GLOBAL| Total number of message passing processes                            49
 GLOBAL| Number of threads for this process                                    1
 GLOBAL| This output is from process                                           0
 GLOBAL| CPU model name :  Intel(R) Xeon(R) Gold 6132 CPU @ 2.60GHz

 MEMORY| system memory details [Kb]
 MEMORY|                        rank 0           min           max       average
 MEMORY| MemTotal            197738988     197738988     197738988     197738988
 MEMORY| MemFree             178016208     178016208     179411012     178699377
 MEMORY| Buffers                  2640          1764          2640          2210
 MEMORY| Cached                 252492        237632        252492        245213
 MEMORY| Slab                  3450960       2388264       3450960       2930455
 MEMORY| SReclaimable          1363916        953512       1363916       1162901
 MEMORY| MemLikelyFree       179635256     179635256     180603920     180109703


 *** Fundamental physical constants (SI units) ***

 *** Literature: B. J. Mohr and B. N. Taylor,
 ***             CODATA recommended values of the fundamental physical
 ***             constants: 2006, Web Version 5.1
 ***             http://physics.nist.gov/constants

 Speed of light in vacuum [m/s]                             2.99792458000000E+08
 Magnetic constant or permeability of vacuum [N/A**2]       1.25663706143592E-06
 Electric constant or permittivity of vacuum [F/m]          8.85418781762039E-12
 Planck constant (h) [J*s]                                  6.62606896000000E-34
 Planck constant (h-bar) [J*s]                              1.05457162825177E-34
 Elementary charge [C]                                      1.60217648700000E-19
 Electron mass [kg]                                         9.10938215000000E-31
 Electron g factor [ ]                                     -2.00231930436220E+00
 Proton mass [kg]                                           1.67262163700000E-27
 Fine-structure constant                                    7.29735253760000E-03
 Rydberg constant [1/m]                                     1.09737315685270E+07
 Avogadro constant [1/mol]                                  6.02214179000000E+23
 Boltzmann constant [J/K]                                   1.38065040000000E-23
 Atomic mass unit [kg]                                      1.66053878200000E-27
 Bohr radius [m]                                            5.29177208590000E-11

 *** Conversion factors ***

 [u] -> [a.u.]                                              1.82288848426455E+03
 [Angstrom] -> [Bohr] = [a.u.]                              1.88972613288564E+00
 [a.u.] = [Bohr] -> [Angstrom]                              5.29177208590000E-01
 [a.u.] -> [s]                                              2.41888432650478E-17
 [a.u.] -> [fs]                                             2.41888432650478E-02
 [a.u.] -> [J]                                              4.35974393937059E-18
 [a.u.] -> [N]                                              8.23872205491840E-08
 [a.u.] -> [K]                                              3.15774647902944E+05
 [a.u.] -> [kJ/mol]                                         2.62549961709828E+03
 [a.u.] -> [kcal/mol]                                       6.27509468713739E+02
 [a.u.] -> [Pa]                                             2.94210107994716E+13
 [a.u.] -> [bar]                                            2.94210107994716E+08
 [a.u.] -> [atm]                                            2.90362800883016E+08
 [a.u.] -> [eV]                                             2.72113838565563E+01
 [a.u.] -> [Hz]                                             6.57968392072181E+15
 [a.u.] -> [1/cm] (wave numbers)                            2.19474631370540E+05
 [a.u./Bohr**2] -> [1/cm]                                   5.14048714338585E+03
 

 CELL_TOP| Volume [angstrom^3]:                                        27694.911
 CELL_TOP| Vector a [angstrom    26.765     0.000     0.000    |a| =      26.765
 CELL_TOP| Vector b [angstrom     0.000    26.765     0.000    |b| =      26.765
 CELL_TOP| Vector c [angstrom     0.000     0.000    38.660    |c| =      38.660
 CELL_TOP| Angle (b,c), alpha [degree]:                                   90.000
 CELL_TOP| Angle (a,c), beta  [degree]:                                   90.000
 CELL_TOP| Angle (a,b), gamma [degree]:                                   90.000
 CELL_TOP| Numerically orthorhombic:                                         YES
 
 GENERATE|  Preliminary Number of Bonds generated:                             0
 GENERATE|  Achieved consistency in connectivity generation.

 CELL| Volume [angstrom^3]:                                            27694.911
 CELL| Vector a [angstrom]:      26.765     0.000     0.000    |a| =      26.765
 CELL| Vector b [angstrom]:       0.000    26.765     0.000    |b| =      26.765
 CELL| Vector c [angstrom]:       0.000     0.000    38.660    |c| =      38.660
 CELL| Angle (b,c), alpha [degree]:                                       90.000
 CELL| Angle (a,c), beta  [degree]:                                       90.000
 CELL| Angle (a,b), gamma [degree]:                                       90.000
 CELL| Numerically orthorhombic:                                             YES

 CELL_REF| Volume [angstrom^3]:                                        27694.911
 CELL_REF| Vector a [angstrom    26.765     0.000     0.000    |a| =      26.765
 CELL_REF| Vector b [angstrom     0.000    26.765     0.000    |b| =      26.765
 CELL_REF| Vector c [angstrom     0.000     0.000    38.660    |c| =      38.660
 CELL_REF| Angle (b,c), alpha [degree]:                                   90.000
 CELL_REF| Angle (a,c), beta  [degree]:                                   90.000
 CELL_REF| Angle (a,b), gamma [degree]:                                   90.000
 CELL_REF| Numerically orthorhombic:                                         YES

 *******************************************************************************
 *******************************************************************************
 **                                                                           **
 **     #####                         ##              ##                      **
 **    ##   ##            ##          ##              ##                      **
 **   ##     ##                       ##            ######                    **
 **   ##     ##  ##   ##  ##   #####  ##  ##   ####   ##    #####    #####    **
 **   ##     ##  ##   ##  ##  ##      ## ##   ##      ##   ##   ##  ##   ##   **
 **   ##  ## ##  ##   ##  ##  ##      ####     ###    ##   ######   ######    **
 **    ##  ###   ##   ##  ##  ##      ## ##      ##   ##   ##       ##        **
 **     #######   #####   ##   #####  ##  ##  ####    ##    #####   ##        **
 **           ##                                                    ##        **
 **                                                                           **
 **                                                ... make the atoms dance   **
 **                                                                           **
 **            Copyright (C) by CP2K developers group (2000 - 2017)           **
 **                                                                           **
 *******************************************************************************

 DFT| Spin unrestricted (spin-polarized) Kohn-Sham calculation               UKS
 DFT| Multiplicity                                                            49
 DFT| Number of spin states                                                    2
 DFT| Charge                                                                   0
 DFT| Self-interaction correction (SIC)                                       NO
 DFT| Cutoffs: density                                              1.000000E-10
 DFT|          gradient                                             1.000000E-10
 DFT|          tau                                                  1.000000E-10
 DFT|          cutoff_smoothing_range                               0.000000E+00
 DFT| XC density smoothing                                                  NONE
 DFT| XC derivatives                                                          PW
 FUNCTIONAL| ROUTINE=NEW
 FUNCTIONAL| PBE:
 FUNCTIONAL| J.P.Perdew, K.Burke, M.Ernzerhof, Phys. Rev. Letter, vol. 77, n 18,
 FUNCTIONAL|  pp. 3865-3868, (1996){spin polarized}                             
 vdW POTENTIAL|                                                   Pair Potential
 vdW POTENTIAL|          DFT-D3 (Version 3.1)
 vdW POTENTIAL|          Potential Form: S. Grimme et al, JCP 132: 154104 (2010)
 vdW POTENTIAL|          BJ Damping: S. Grimme et al, JCC 32: 1456 (2011)
 vdW POTENTIAL|          Cutoff Radius [Bohr]:                             20.00
 vdW POTENTIAL|          s6 Scaling Factor:                               1.0000
 vdW POTENTIAL|          a1 Damping Factor:                               0.4289
 vdW POTENTIAL|          s8 Scaling Factor:                               0.7875
 vdW POTENTIAL|          a2 Damping Factor:                               4.4407
 vdW POTENTIAL|          Cutoff for CN calculation:                   0.1000E-05

 QS| Method:                                                                 GPW
 QS| Density plane wave grid type                        NON-SPHERICAL FULLSPACE
 QS| Number of grid levels:                                                    4
 QS| Density cutoff [a.u.]:                                                300.0
 QS| Multi grid cutoff [a.u.]: 1) grid level                               300.0
 QS|                           2) grid level                               100.0
 QS|                           3) grid level                                33.3
 QS|                           4) grid level                                11.1
 QS| Grid level progression factor:                                          3.0
 QS| Relative density cutoff [a.u.]:                                        25.0
 QS| Consistent realspace mapping and integration 
 QS| Interaction thresholds: eps_pgf_orb:                                1.0E-05
 QS|                         eps_filter_matrix:                          0.0E+00
 QS|                         eps_core_charge:                            1.0E-12
 QS|                         eps_rho_gspace:                             1.0E-10
 QS|                         eps_rho_rspace:                             1.0E-10
 QS|                         eps_gvg_rspace:                             1.0E-05
 QS|                         eps_ppl:                                    1.0E-02
 QS|                         eps_ppnl:                                   1.0E-07


 ATOMIC KIND INFORMATION

  1. Atomic kind: Cu_frm                                Number of atoms:      48

     Orbital Basis Set                                        DZVP-MOLOPT-SR-GTH

       Number of orbital shell sets:                                           1
       Number of orbital shells:                                               7
       Number of primitive Cartesian functions:                                6
       Number of Cartesian basis functions:                                   30
       Number of spherical basis functions:                                   25
       Norm type:                                                              2

       Normalised Cartesian orbitals:

                        Set   Shell   Orbital            Exponent    Coefficient

                          1       1    2s                5.804051       0.045596
                                                         2.947778      -0.139279
                                                         1.271621       0.214572
                                                         0.517174       0.085605
                                                         0.198007      -0.138200
                                                         0.061684      -0.053295

                          1       2    3s                5.804051       0.130403
                                                         2.947778      -0.161341
                                                         1.271621      -0.101039
                                                         0.517174      -0.345250
                                                         0.198007       0.499925
                                                         0.061684      -0.162382

                          1       3    3px               5.804051      -0.066551
                                                         2.947778       0.111915
                                                         1.271621      -0.204459
                                                         0.517174       0.040237
                                                         0.198007       0.099394
                                                         0.061684       0.024283
                          1       3    3py               5.804051      -0.066551
                                                         2.947778       0.111915
                                                         1.271621      -0.204459
                                                         0.517174       0.040237
                                                         0.198007       0.099394
                                                         0.061684       0.024283
                          1       3    3pz               5.804051      -0.066551
                                                         2.947778       0.111915
                                                         1.271621      -0.204459
                                                         0.517174       0.040237
                                                         0.198007       0.099394
                                                         0.061684       0.024283

                          1       4    4px               5.804051      -0.329266
                                                         2.947778       0.140173
                                                         1.271621       0.545791
                                                         0.517174       0.280404
                                                         0.198007      -0.321326
                                                         0.061684       0.055470
                          1       4    4py               5.804051      -0.329266
                                                         2.947778       0.140173
                                                         1.271621       0.545791
                                                         0.517174       0.280404
                                                         0.198007      -0.321326
                                                         0.061684       0.055470
                          1       4    4pz               5.804051      -0.329266
                                                         2.947778       0.140173
                                                         1.271621       0.545791
                                                         0.517174       0.280404
                                                         0.198007      -0.321326
                                                         0.061684       0.055470

                          1       5    4dx2              5.804051       9.381621
                                                         2.947778       3.660256
                                                         1.271621       0.792510
                                                         0.517174       0.128389
                                                         0.198007       0.013938
                                                         0.061684       0.000367
                          1       5    4dxy              5.804051      16.249444
                                                         2.947778       6.339749
                                                         1.271621       1.372667
                                                         0.517174       0.222377
                                                         0.198007       0.024141
                                                         0.061684       0.000636
                          1       5    4dxz              5.804051      16.249444
                                                         2.947778       6.339749
                                                         1.271621       1.372667
                                                         0.517174       0.222377
                                                         0.198007       0.024141
                                                         0.061684       0.000636
                          1       5    4dy2              5.804051       9.381621
                                                         2.947778       3.660256
                                                         1.271621       0.792510
                                                         0.517174       0.128389
                                                         0.198007       0.013938
                                                         0.061684       0.000367
                          1       5    4dyz              5.804051      16.249444
                                                         2.947778       6.339749
                                                         1.271621       1.372667
                                                         0.517174       0.222377
                                                         0.198007       0.024141
                                                         0.061684       0.000636
                          1       5    4dz2              5.804051       9.381621
                                                         2.947778       3.660256
                                                         1.271621       0.792510
                                                         0.517174       0.128389
                                                         0.198007       0.013938
                                                         0.061684       0.000367

                          1       6    5dx2              5.804051      -3.189865
                                                         2.947778      -1.988097
                                                         1.271621      -0.492759
                                                         0.517174       0.080183
                                                         0.198007       0.017863
                                                         0.061684       0.009947
                          1       6    5dxy              5.804051      -5.525009
                                                         2.947778      -3.443486
                                                         1.271621      -0.853484
                                                         0.517174       0.138882
                                                         0.198007       0.030940
                                                         0.061684       0.017228
                          1       6    5dxz              5.804051      -5.525009
                                                         2.947778      -3.443486
                                                         1.271621      -0.853484
                                                         0.517174       0.138882
                                                         0.198007       0.030940
                                                         0.061684       0.017228
                          1       6    5dy2              5.804051      -3.189865
                                                         2.947778      -1.988097
                                                         1.271621      -0.492759
                                                         0.517174       0.080183
                                                         0.198007       0.017863
                                                         0.061684       0.009947
                          1       6    5dyz              5.804051      -5.525009
                                                         2.947778      -3.443486
                                                         1.271621      -0.853484
                                                         0.517174       0.138882
                                                         0.198007       0.030940
                                                         0.061684       0.017228
                          1       6    5dz2              5.804051      -3.189865
                                                         2.947778      -1.988097
                                                         1.271621      -0.492759
                                                         0.517174       0.080183
                                                         0.198007       0.017863
                                                         0.061684       0.009947

                          1       7    5fx3              5.804051      -1.183361
                                                         2.947778       0.859927
                                                         1.271621      -0.674185
                                                         0.517174      -0.156063
                                                         0.198007      -0.018231
                                                         0.061684       0.001772
                          1       7    5fx2y             5.804051      -2.646075
                                                         2.947778       1.922855
                                                         1.271621      -1.507524
                                                         0.517174      -0.348968
                                                         0.198007      -0.040766
                                                         0.061684       0.003961
                          1       7    5fx2z             5.804051      -2.646075
                                                         2.947778       1.922855
                                                         1.271621      -1.507524
                                                         0.517174      -0.348968
                                                         0.198007      -0.040766
                                                         0.061684       0.003961
                          1       7    5fxy2             5.804051      -2.646075
                                                         2.947778       1.922855
                                                         1.271621      -1.507524
                                                         0.517174      -0.348968
                                                         0.198007      -0.040766
                                                         0.061684       0.003961
                          1       7    5fxyz             5.804051      -4.583137
                                                         2.947778       3.330483
                                                         1.271621      -2.611108
                                                         0.517174      -0.604431
                                                         0.198007      -0.070608
                                                         0.061684       0.006861
                          1       7    5fxz2             5.804051      -2.646075
                                                         2.947778       1.922855
                                                         1.271621      -1.507524
                                                         0.517174      -0.348968
                                                         0.198007      -0.040766
                                                         0.061684       0.003961
                          1       7    5fy3              5.804051      -1.183361
                                                         2.947778       0.859927
                                                         1.271621      -0.674185
                                                         0.517174      -0.156063
                                                         0.198007      -0.018231
                                                         0.061684       0.001772
                          1       7    5fy2z             5.804051      -2.646075
                                                         2.947778       1.922855
                                                         1.271621      -1.507524
                                                         0.517174      -0.348968
                                                         0.198007      -0.040766
                                                         0.061684       0.003961
                          1       7    5fyz2             5.804051      -2.646075
                                                         2.947778       1.922855
                                                         1.271621      -1.507524
                                                         0.517174      -0.348968
                                                         0.198007      -0.040766
                                                         0.061684       0.003961
                          1       7    5fz3              5.804051      -1.183361
                                                         2.947778       0.859927
                                                         1.271621      -0.674185
                                                         0.517174      -0.156063
                                                         0.198007      -0.018231
                                                         0.061684       0.001772

     GTH Potential information for                                       GTH-PBE

       Description:                       Goedecker-Teter-Hutter pseudopotential
                                           Goedecker et al., PRB 54, 1703 (1996)
                                          Hartwigsen et al., PRB 58, 3641 (1998)
                                                      Krack, TCA 114, 145 (2005)

       Gaussian exponent of the core charge distribution:               1.779993
       Electronic configuration (s p d ...):                           1   0  10

       Parameters of the local part of the GTH pseudopotential:

                          rloc        C1          C2          C3          C4
                        0.530000

       Parameters of the non-local part of the GTH pseudopotential:

                   l      r(l)      h(i,j,l)

                   0    0.431355    9.693805   -6.470165    1.935952
                                   -6.470165   11.501774   -4.998607
                                    1.935952   -4.998607    3.967521
                   1    0.561392    2.545473   -0.784636
                                   -0.784636    0.928394
                   2    0.264555  -12.828614

  2. Atomic kind: O_frm                                 Number of atoms:     192

     Orbital Basis Set                                        DZVP-MOLOPT-SR-GTH

       Number of orbital shell sets:                                           1
       Number of orbital shells:                                               5
       Number of primitive Cartesian functions:                                5
       Number of Cartesian basis functions:                                   14
       Number of spherical basis functions:                                   13
       Norm type:                                                              2

       Normalised Cartesian orbitals:

                        Set   Shell   Orbital            Exponent    Coefficient

                          1       1    2s               10.389228       0.396646
                                                         3.849621       0.208811
                                                         1.388401      -0.301641
                                                         0.496955      -0.274061
                                                         0.162492      -0.033677

                          1       2    3s               10.389228       0.303673
                                                         3.849621       0.240943
                                                         1.388401      -0.313066
                                                         0.496955      -0.043055
                                                         0.162492       0.213991

                          1       3    3px              10.389228      -1.530415
                                                         3.849621      -1.371928
                                                         1.388401      -0.761951
                                                         0.496955      -0.253695
                                                         0.162492      -0.035541
                          1       3    3py              10.389228      -1.530415
                                                         3.849621      -1.371928
                                                         1.388401      -0.761951
                                                         0.496955      -0.253695
                                                         0.162492      -0.035541
                          1       3    3pz              10.389228      -1.530415
                                                         3.849621      -1.371928
                                                         1.388401      -0.761951
                                                         0.496955      -0.253695
                                                         0.162492      -0.035541

                          1       4    4px              10.389228      -0.565392
                                                         3.849621      -0.038231
                                                         1.388401      -0.382373
                                                         0.496955       0.179070
                                                         0.162492       0.122714
                          1       4    4py              10.389228      -0.565392
                                                         3.849621      -0.038231
                                                         1.388401      -0.382373
                                                         0.496955       0.179070
                                                         0.162492       0.122714
                          1       4    4pz              10.389228      -0.565392
                                                         3.849621      -0.038231
                                                         1.388401      -0.382373
                                                         0.496955       0.179070
                                                         0.162492       0.122714

                          1       5    4dx2             10.389228       1.867377
                                                         3.849621       0.670994
                                                         1.388401       1.353441
                                                         0.496955       0.273538
                                                         0.162492       0.006620
                          1       5    4dxy             10.389228       3.234392
                                                         3.849621       1.162195
                                                         1.388401       2.344229
                                                         0.496955       0.473781
                                                         0.162492       0.011466
                          1       5    4dxz             10.389228       3.234392
                                                         3.849621       1.162195
                                                         1.388401       2.344229
                                                         0.496955       0.473781
                                                         0.162492       0.011466
                          1       5    4dy2             10.389228       1.867377
                                                         3.849621       0.670994
                                                         1.388401       1.353441
                                                         0.496955       0.273538
                                                         0.162492       0.006620
                          1       5    4dyz             10.389228       3.234392
                                                         3.849621       1.162195
                                                         1.388401       2.344229
                                                         0.496955       0.473781
                                                         0.162492       0.011466
                          1       5    4dz2             10.389228       1.867377
                                                         3.849621       0.670994
                                                         1.388401       1.353441
                                                         0.496955       0.273538
                                                         0.162492       0.006620

     GTH Potential information for                                       GTH-PBE

       Description:                       Goedecker-Teter-Hutter pseudopotential
                                           Goedecker et al., PRB 54, 1703 (1996)
                                          Hartwigsen et al., PRB 58, 3641 (1998)
                                                      Krack, TCA 114, 145 (2005)

       Gaussian exponent of the core charge distribution:               8.360253
       Electronic configuration (s p d ...):                               2   4

       Parameters of the local part of the GTH pseudopotential:

                          rloc        C1          C2          C3          C4
                        0.244554  -16.667215    2.487311

       Parameters of the non-local part of the GTH pseudopotential:

                   l      r(l)      h(i,j,l)

                   0    0.220956   18.337458
                   1    0.211332

  3. Atomic kind: N_frm                                 Number of atoms:      96

     Orbital Basis Set                                        DZVP-MOLOPT-SR-GTH

       Number of orbital shell sets:                                           1
       Number of orbital shells:                                               5
       Number of primitive Cartesian functions:                                5
       Number of Cartesian basis functions:                                   14
       Number of spherical basis functions:                                   13
       Norm type:                                                              2

       Normalised Cartesian orbitals:

                        Set   Shell   Orbital            Exponent    Coefficient

                          1       1    2s                7.341988       0.360561
                                                         2.542637       0.139177
                                                         0.888575      -0.289383
                                                         0.333802      -0.182244
                                                         0.112012      -0.019197

                          1       2    3s                7.341988       0.282000
                                                         2.542637       0.177875
                                                         0.888575      -0.278381
                                                         0.333802       0.008577
                                                         0.112012       0.154176

                          1       3    3px               7.341988      -1.188719
                                                         2.542637      -0.973969
                                                         0.888575      -0.501079
                                                         0.333802      -0.144894
                                                         0.112012      -0.013986
                          1       3    3py               7.341988      -1.188719
                                                         2.542637      -0.973969
                                                         0.888575      -0.501079
                                                         0.333802      -0.144894
                                                         0.112012      -0.013986
                          1       3    3pz               7.341988      -1.188719
                                                         2.542637      -0.973969
                                                         0.888575      -0.501079
                                                         0.333802      -0.144894
                                                         0.112012      -0.013986

                          1       4    4px               7.341988      -0.094798
                                                         2.542637       0.050069
                                                         0.888575      -0.114797
                                                         0.333802       0.144793
                                                         0.112012       0.066710
                          1       4    4py               7.341988      -0.094798
                                                         2.542637       0.050069
                                                         0.888575      -0.114797
                                                         0.333802       0.144793
                                                         0.112012       0.066710
                          1       4    4pz               7.341988      -0.094798
                                                         2.542637       0.050069
                                                         0.888575      -0.114797
                                                         0.333802       0.144793
                                                         0.112012       0.066710

                          1       5    4dx2              7.341988       1.354688
                                                         2.542637       0.690378
                                                         0.888575       0.855359
                                                         0.333802       0.091746
                                                         0.112012       0.001253
                          1       5    4dxy              7.341988       2.346389
                                                         2.542637       1.195770
                                                         0.888575       1.481524
                                                         0.333802       0.158910
                                                         0.112012       0.002169
                          1       5    4dxz              7.341988       2.346389
                                                         2.542637       1.195770
                                                         0.888575       1.481524
                                                         0.333802       0.158910
                                                         0.112012       0.002169
                          1       5    4dy2              7.341988       1.354688
                                                         2.542637       0.690378
                                                         0.888575       0.855359
                                                         0.333802       0.091746
                                                         0.112012       0.001253
                          1       5    4dyz              7.341988       2.346389
                                                         2.542637       1.195770
                                                         0.888575       1.481524
                                                         0.333802       0.158910
                                                         0.112012       0.002169
                          1       5    4dz2              7.341988       1.354688
                                                         2.542637       0.690378
                                                         0.888575       0.855359
                                                         0.333802       0.091746
                                                         0.112012       0.001253

     GTH Potential information for                                       GTH-PBE

       Description:                       Goedecker-Teter-Hutter pseudopotential
                                           Goedecker et al., PRB 54, 1703 (1996)
                                          Hartwigsen et al., PRB 58, 3641 (1998)
                                                      Krack, TCA 114, 145 (2005)

       Gaussian exponent of the core charge distribution:               6.208322
       Electronic configuration (s p d ...):                               2   3

       Parameters of the local part of the GTH pseudopotential:

                          rloc        C1          C2          C3          C4
                        0.283791  -12.415226    1.868096

       Parameters of the non-local part of the GTH pseudopotential:

                   l      r(l)      h(i,j,l)

                   0    0.255405   13.630263
                   1    0.245495

  4. Atomic kind: C_frm                                 Number of atoms:     432

     Orbital Basis Set                                        DZVP-MOLOPT-SR-GTH

       Number of orbital shell sets:                                           1
       Number of orbital shells:                                               5
       Number of primitive Cartesian functions:                                5
       Number of Cartesian basis functions:                                   14
       Number of spherical basis functions:                                   13
       Norm type:                                                              2

       Normalised Cartesian orbitals:

                        Set   Shell   Orbital            Exponent    Coefficient

                          1       1    2s                5.605331       0.322515
                                                         2.113016       0.213043
                                                         0.769911      -0.209686
                                                         0.348157      -0.219794
                                                         0.128212      -0.022789

                          1       2    3s                5.605331       0.552234
                                                         2.113016       0.082072
                                                         0.769911       0.007843
                                                         0.348157       0.136893
                                                         0.128212       0.074283

                          1       3    3px               5.605331      -0.703879
                                                         2.113016      -0.642521
                                                         0.769911      -0.374851
                                                         0.348157      -0.139743
                                                         0.128212      -0.027849
                          1       3    3py               5.605331      -0.703879
                                                         2.113016      -0.642521
                                                         0.769911      -0.374851
                                                         0.348157      -0.139743
                                                         0.128212      -0.027849
                          1       3    3pz               5.605331      -0.703879
                                                         2.113016      -0.642521
                                                         0.769911      -0.374851
                                                         0.348157      -0.139743
                                                         0.128212      -0.027849

                          1       4    4px               5.605331      -0.480376
                                                         2.113016      -0.552894
                                                         0.769911      -0.316145
                                                         0.348157       0.210505
                                                         0.128212       0.076095
                          1       4    4py               5.605331      -0.480376
                                                         2.113016      -0.552894
                                                         0.769911      -0.316145
                                                         0.348157       0.210505
                                                         0.128212       0.076095
                          1       4    4pz               5.605331      -0.480376
                                                         2.113016      -0.552894
                                                         0.769911      -0.316145
                                                         0.348157       0.210505
                                                         0.128212       0.076095

                          1       5    4dx2              5.605331       0.640026
                                                         2.113016       0.274300
                                                         0.769911       0.446711
                                                         0.348157       0.028674
                                                         0.128212       0.029790
                          1       5    4dxy              5.605331       1.108557
                                                         2.113016       0.475102
                                                         0.769911       0.773726
                                                         0.348157       0.049666
                                                         0.128212       0.051599
                          1       5    4dxz              5.605331       1.108557
                                                         2.113016       0.475102
                                                         0.769911       0.773726
                                                         0.348157       0.049666
                                                         0.128212       0.051599
                          1       5    4dy2              5.605331       0.640026
                                                         2.113016       0.274300
                                                         0.769911       0.446711
                                                         0.348157       0.028674
                                                         0.128212       0.029790
                          1       5    4dyz              5.605331       1.108557
                                                         2.113016       0.475102
                                                         0.769911       0.773726
                                                         0.348157       0.049666
                                                         0.128212       0.051599
                          1       5    4dz2              5.605331       0.640026
                                                         2.113016       0.274300
                                                         0.769911       0.446711
                                                         0.348157       0.028674
                                                         0.128212       0.029790

     GTH Potential information for                                       GTH-PBE

       Description:                       Goedecker-Teter-Hutter pseudopotential
                                           Goedecker et al., PRB 54, 1703 (1996)
                                          Hartwigsen et al., PRB 58, 3641 (1998)
                                                      Krack, TCA 114, 145 (2005)

       Gaussian exponent of the core charge distribution:               4.364419
       Electronic configuration (s p d ...):                               2   2

       Parameters of the local part of the GTH pseudopotential:

                          rloc        C1          C2          C3          C4
                        0.338471   -8.803674    1.339211

       Parameters of the non-local part of the GTH pseudopotential:

                   l      r(l)      h(i,j,l)

                   0    0.302576    9.622487
                   1    0.291507

  5. Atomic kind: H_frm                                 Number of atoms:     192

     Orbital Basis Set                                        DZVP-MOLOPT-SR-GTH

       Number of orbital shell sets:                                           1
       Number of orbital shells:                                               3
       Number of primitive Cartesian functions:                                5
       Number of Cartesian basis functions:                                    5
       Number of spherical basis functions:                                    5
       Norm type:                                                              2

       Normalised Cartesian orbitals:

                        Set   Shell   Orbital            Exponent    Coefficient

                          1       1    2s               10.068468      -0.133023
                                                         2.680223      -0.177618
                                                         0.791502      -0.258419
                                                         0.239116      -0.107525
                                                         0.082193      -0.014019

                          1       2    3s               10.068468       0.344673
                                                         2.680223       1.819821
                                                         0.791502      -0.999069
                                                         0.239116       0.017430
                                                         0.082193       0.082660

                          1       3    3px              10.068468       0.155326
                                                         2.680223       0.367157
                                                         0.791502       0.311480
                                                         0.239116       0.080105
                                                         0.082193       0.033440
                          1       3    3py              10.068468       0.155326
                                                         2.680223       0.367157
                                                         0.791502       0.311480
                                                         0.239116       0.080105
                                                         0.082193       0.033440
                          1       3    3pz              10.068468       0.155326
                                                         2.680223       0.367157
                                                         0.791502       0.311480
                                                         0.239116       0.080105
                                                         0.082193       0.033440

     GTH Potential information for                                       GTH-PBE

       Description:                       Goedecker-Teter-Hutter pseudopotential
                                           Goedecker et al., PRB 54, 1703 (1996)
                                          Hartwigsen et al., PRB 58, 3641 (1998)
                                                      Krack, TCA 114, 145 (2005)

       Gaussian exponent of the core charge distribution:              12.500000
       Electronic configuration (s p d ...):                                   1

       Parameters of the local part of the GTH pseudopotential:

                          rloc        C1          C2          C3          C4
                        0.200000   -4.178900    0.724463

  6. Atomic kind: O_ads                                 Number of atoms:       2

     Orbital Basis Set                                        DZVP-MOLOPT-SR-GTH

       Number of orbital shell sets:                                           1
       Number of orbital shells:                                               5
       Number of primitive Cartesian functions:                                5
       Number of Cartesian basis functions:                                   14
       Number of spherical basis functions:                                   13
       Norm type:                                                              2

       Normalised Cartesian orbitals:

                        Set   Shell   Orbital            Exponent    Coefficient

                          1       1    2s               10.389228       0.396646
                                                         3.849621       0.208811
                                                         1.388401      -0.301641
                                                         0.496955      -0.274061
                                                         0.162492      -0.033677

                          1       2    3s               10.389228       0.303673
                                                         3.849621       0.240943
                                                         1.388401      -0.313066
                                                         0.496955      -0.043055
                                                         0.162492       0.213991

                          1       3    3px              10.389228      -1.530415
                                                         3.849621      -1.371928
                                                         1.388401      -0.761951
                                                         0.496955      -0.253695
                                                         0.162492      -0.035541
                          1       3    3py              10.389228      -1.530415
                                                         3.849621      -1.371928
                                                         1.388401      -0.761951
                                                         0.496955      -0.253695
                                                         0.162492      -0.035541
                          1       3    3pz              10.389228      -1.530415
                                                         3.849621      -1.371928
                                                         1.388401      -0.761951
                                                         0.496955      -0.253695
                                                         0.162492      -0.035541

                          1       4    4px              10.389228      -0.565392
                                                         3.849621      -0.038231
                                                         1.388401      -0.382373
                                                         0.496955       0.179070
                                                         0.162492       0.122714
                          1       4    4py              10.389228      -0.565392
                                                         3.849621      -0.038231
                                                         1.388401      -0.382373
                                                         0.496955       0.179070
                                                         0.162492       0.122714
                          1       4    4pz              10.389228      -0.565392
                                                         3.849621      -0.038231
                                                         1.388401      -0.382373
                                                         0.496955       0.179070
                                                         0.162492       0.122714

                          1       5    4dx2             10.389228       1.867377
                                                         3.849621       0.670994
                                                         1.388401       1.353441
                                                         0.496955       0.273538
                                                         0.162492       0.006620
                          1       5    4dxy             10.389228       3.234392
                                                         3.849621       1.162195
                                                         1.388401       2.344229
                                                         0.496955       0.473781
                                                         0.162492       0.011466
                          1       5    4dxz             10.389228       3.234392
                                                         3.849621       1.162195
                                                         1.388401       2.344229
                                                         0.496955       0.473781
                                                         0.162492       0.011466
                          1       5    4dy2             10.389228       1.867377
                                                         3.849621       0.670994
                                                         1.388401       1.353441
                                                         0.496955       0.273538
                                                         0.162492       0.006620
                          1       5    4dyz             10.389228       3.234392
                                                         3.849621       1.162195
                                                         1.388401       2.344229
                                                         0.496955       0.473781
                                                         0.162492       0.011466
                          1       5    4dz2             10.389228       1.867377
                                                         3.849621       0.670994
                                                         1.388401       1.353441
                                                         0.496955       0.273538
                                                         0.162492       0.006620

     GTH Potential information for                                       GTH-PBE

       Description:                       Goedecker-Teter-Hutter pseudopotential
                                           Goedecker et al., PRB 54, 1703 (1996)
                                          Hartwigsen et al., PRB 58, 3641 (1998)
                                                      Krack, TCA 114, 145 (2005)

       Gaussian exponent of the core charge distribution:               8.360253
       Electronic configuration (s p d ...):                               2   4

       Parameters of the local part of the GTH pseudopotential:

                          rloc        C1          C2          C3          C4
                        0.244554  -16.667215    2.487311

       Parameters of the non-local part of the GTH pseudopotential:

                   l      r(l)      h(i,j,l)

                   0    0.220956   18.337458
                   1    0.211332

  7. Atomic kind: C_ads                                 Number of atoms:       1

     Orbital Basis Set                                        DZVP-MOLOPT-SR-GTH

       Number of orbital shell sets:                                           1
       Number of orbital shells:                                               5
       Number of primitive Cartesian functions:                                5
       Number of Cartesian basis functions:                                   14
       Number of spherical basis functions:                                   13
       Norm type:                                                              2

       Normalised Cartesian orbitals:

                        Set   Shell   Orbital            Exponent    Coefficient

                          1       1    2s                5.605331       0.322515
                                                         2.113016       0.213043
                                                         0.769911      -0.209686
                                                         0.348157      -0.219794
                                                         0.128212      -0.022789

                          1       2    3s                5.605331       0.552234
                                                         2.113016       0.082072
                                                         0.769911       0.007843
                                                         0.348157       0.136893
                                                         0.128212       0.074283

                          1       3    3px               5.605331      -0.703879
                                                         2.113016      -0.642521
                                                         0.769911      -0.374851
                                                         0.348157      -0.139743
                                                         0.128212      -0.027849
                          1       3    3py               5.605331      -0.703879
                                                         2.113016      -0.642521
                                                         0.769911      -0.374851
                                                         0.348157      -0.139743
                                                         0.128212      -0.027849
                          1       3    3pz               5.605331      -0.703879
                                                         2.113016      -0.642521
                                                         0.769911      -0.374851
                                                         0.348157      -0.139743
                                                         0.128212      -0.027849

                          1       4    4px               5.605331      -0.480376
                                                         2.113016      -0.552894
                                                         0.769911      -0.316145
                                                         0.348157       0.210505
                                                         0.128212       0.076095
                          1       4    4py               5.605331      -0.480376
                                                         2.113016      -0.552894
                                                         0.769911      -0.316145
                                                         0.348157       0.210505
                                                         0.128212       0.076095
                          1       4    4pz               5.605331      -0.480376
                                                         2.113016      -0.552894
                                                         0.769911      -0.316145
                                                         0.348157       0.210505
                                                         0.128212       0.076095

                          1       5    4dx2              5.605331       0.640026
                                                         2.113016       0.274300
                                                         0.769911       0.446711
                                                         0.348157       0.028674
                                                         0.128212       0.029790
                          1       5    4dxy              5.605331       1.108557
                                                         2.113016       0.475102
                                                         0.769911       0.773726
                                                         0.348157       0.049666
                                                         0.128212       0.051599
                          1       5    4dxz              5.605331       1.108557
                                                         2.113016       0.475102
                                                         0.769911       0.773726
                                                         0.348157       0.049666
                                                         0.128212       0.051599
                          1       5    4dy2              5.605331       0.640026
                                                         2.113016       0.274300
                                                         0.769911       0.446711
                                                         0.348157       0.028674
                                                         0.128212       0.029790
                          1       5    4dyz              5.605331       1.108557
                                                         2.113016       0.475102
                                                         0.769911       0.773726
                                                         0.348157       0.049666
                                                         0.128212       0.051599
                          1       5    4dz2              5.605331       0.640026
                                                         2.113016       0.274300
                                                         0.769911       0.446711
                                                         0.348157       0.028674
                                                         0.128212       0.029790

     GTH Potential information for                                       GTH-PBE

       Description:                       Goedecker-Teter-Hutter pseudopotential
                                           Goedecker et al., PRB 54, 1703 (1996)
                                          Hartwigsen et al., PRB 58, 3641 (1998)
                                                      Krack, TCA 114, 145 (2005)

       Gaussian exponent of the core charge distribution:               4.364419
       Electronic configuration (s p d ...):                               2   2

       Parameters of the local part of the GTH pseudopotential:

                          rloc        C1          C2          C3          C4
                        0.338471   -8.803674    1.339211

       Parameters of the non-local part of the GTH pseudopotential:

                   l      r(l)      h(i,j,l)

                   0    0.302576    9.622487
                   1    0.291507


 MOLECULE KIND INFORMATION


 All atoms are their own molecule, skipping detailed information


 TOTAL NUMBERS AND MAXIMUM NUMBERS

  Total number of            - Atomic kinds:                                   7
                             - Atoms:                                        963
                             - Shell sets:                                   963
                             - Shells:                                      4527
                             - Primitive Cartesian functions:               4863
                             - Cartesian basis functions:                  12522
                             - Spherical basis functions:                  11559

  Maximum angular momentum of- Orbital basis functions:                        3
                             - Local part of the GTH pseudopotential:          2
                             - Non-local part of the GTH pseudopotential:      4


 MODULE QUICKSTEP:  ATOMIC COORDINATES IN angstrom

  Atom  Kind  Element       X           Y           Z          Z(eff)       Mass

       1     1 Cu  29    1.461627   18.795471   19.330068     11.00      63.5460
       2     1 Cu  29   25.303433    7.969591   19.330068     11.00      63.5460
       3     1 Cu  29    7.969594    1.461629   19.330068     11.00      63.5460
       4     1 Cu  29   18.795469   25.303438   19.330068     11.00      63.5460
       5     1 Cu  29   14.829461    5.421579   -0.000034     11.00      63.5460
       6     1 Cu  29   11.935596   21.343504   -0.000018     11.00      63.5460
       7     1 Cu  29   21.343489   14.829468   -0.000027     11.00      63.5460
       8     1 Cu  29    5.421556   11.935605   -0.000094     11.00      63.5460
       9     1 Cu  29    1.868616   16.389759   19.330068     11.00      63.5460
      10     1 Cu  29   24.896450   10.375320   19.330068     11.00      63.5460
      11     1 Cu  29   10.375318    1.868616   19.330068     11.00      63.5460
      12     1 Cu  29   16.389753   24.896449   19.330068     11.00      63.5460
      13     1 Cu  29   15.190404    3.003144   -0.000335     11.00      63.5460
      14     1 Cu  29   11.574660   23.761921   -0.000172     11.00      63.5460
      15     1 Cu  29   23.761916   15.190403   -0.000237     11.00      63.5460
      16     1 Cu  29    3.003132   11.574676   -0.000929     11.00      63.5460
      17     1 Cu  29   10.122619    8.654619    5.842988     11.00      63.5460
      18     1 Cu  29   16.642433   18.110445    5.842994     11.00      63.5460
      19     1 Cu  29   18.110444   10.122636    5.842996     11.00      63.5460
      20     1 Cu  29    8.654617   16.642416    5.842988     11.00      63.5460
      21     1 Cu  29   16.642416   18.110448   32.817128     11.00      63.5460
      22     1 Cu  29   10.122656    8.654617   32.817123     11.00      63.5460
      23     1 Cu  29    8.654621   16.642443   32.817121     11.00      63.5460
      24     1 Cu  29   18.110445   10.122646   32.817129     11.00      63.5460
      25     1 Cu  29   23.528107   22.022214   25.148334     11.00      63.5460
      26     1 Cu  29    3.236954    4.742852   25.148334     11.00      63.5460
      27     1 Cu  29    4.742853   23.528110   25.148334     11.00      63.5460
      28     1 Cu  29   22.022213    3.236954   25.148336     11.00      63.5460
      29     1 Cu  29    3.236954    4.742851   13.511799     11.00      63.5460
      30     1 Cu  29   23.528111   22.022213   13.511798     11.00      63.5460
      31     1 Cu  29   22.022213    3.236954   13.511798     11.00      63.5460
      32     1 Cu  29    4.742850   23.528110   13.511798     11.00      63.5460
      33     1 Cu  29    9.108748    7.198501    7.539014     11.00      63.5460
      34     1 Cu  29   17.656309   19.566557    7.539030     11.00      63.5460
      35     1 Cu  29   19.566562    9.108754    7.539026     11.00      63.5460
      36     1 Cu  29    7.198463   17.656300    7.538992     11.00      63.5460
      37     1 Cu  29   17.656310   19.566539   31.121078     11.00      63.5460
      38     1 Cu  29    9.108764    7.198537   31.121059     11.00      63.5460
      39     1 Cu  29    7.198581   17.656321   31.121035     11.00      63.5460
      40     1 Cu  29   19.566537    9.108759   31.121077     11.00      63.5460
      41     1 Cu  29   22.548262   20.569006   26.863369     11.00      63.5460
      42     1 Cu  29    4.216803    6.196058   26.863369     11.00      63.5460
      43     1 Cu  29    6.196059   22.548262   26.863368     11.00      63.5460
      44     1 Cu  29   20.569006    4.216803   26.863368     11.00      63.5460
      45     1 Cu  29    4.216803    6.196058   11.796766     11.00      63.5460
      46     1 Cu  29   22.548262   20.569008   11.796766     11.00      63.5460
      47     1 Cu  29   20.569007    4.216804   11.796768     11.00      63.5460
      48     1 Cu  29    6.196058   22.548262   11.796766     11.00      63.5460
      49     2 O    8    3.195459   16.719720   17.897459      6.00      15.9994
      50     2 O    8   23.569606   10.045343   17.897458      6.00      15.9994
      51     2 O    8   10.045342    3.195459   17.897458      6.00      15.9994
      52     2 O    8   16.719721   23.569606   17.897458      6.00      15.9994
      53     2 O    8   23.569606   10.045342   20.762677      6.00      15.9994
      54     2 O    8    3.195459   16.719722   20.762677      6.00      15.9994
      55     2 O    8   16.719722   23.569606   20.762677      6.00      15.9994
      56     2 O    8   10.045342    3.195459   20.762677      6.00      15.9994
      57     2 O    8   16.513112    3.320307   37.235641      6.00      15.9994
      58     2 O    8   10.251936   23.444719   37.235803      6.00      15.9994
      59     2 O    8   23.444729   16.513119   37.235727      6.00      15.9994
      60     2 O    8    3.320190   10.252002   37.235086      6.00      15.9994
      61     2 O    8   10.251912   23.444649    1.424025      6.00      15.9994
      62     2 O    8   16.513161    3.320439    1.423887      6.00      15.9994
      63     2 O    8    3.320546   10.251865    1.423362      6.00      15.9994
      64     2 O    8   23.444635   16.513159    1.423957      6.00      15.9994
      65     2 O    8    2.820013   18.966821   17.898673      6.00      15.9994
      66     2 O    8   23.945054    7.798240   17.898675      6.00      15.9994
      67     2 O    8    7.798240    2.820011   17.898674      6.00      15.9994
      68     2 O    8   18.966822   23.945053   17.898673      6.00      15.9994
      69     2 O    8   23.945053    7.798239   20.761461      6.00      15.9994
      70     2 O    8    2.820012   18.966823   20.761462      6.00      15.9994
      71     2 O    8   18.966823   23.945054   20.761462      6.00      15.9994
      72     2 O    8    7.798240    2.820011   20.761461      6.00      15.9994
      73     2 O    8   16.207415    5.577332   37.255846      6.00      15.9994
      74     2 O    8   10.557655   21.187716   37.255847      6.00      15.9994
      75     2 O    8   21.187719   16.207412   37.255842      6.00      15.9994
      76     2 O    8    5.577277   10.557624   37.255827      6.00      15.9994
      77     2 O    8   10.557673   21.187681    1.404277      6.00      15.9994
      78     2 O    8   16.207381    5.577395    1.404268      6.00      15.9994
      79     2 O    8    5.577445   10.557713    1.404246      6.00      15.9994
      80     2 O    8   21.187674   16.207388    1.404274      6.00      15.9994
      81     2 O    8    4.758142   21.742698   14.362069      6.00      15.9994
      82     2 O    8   22.006924    5.022363   14.362071      6.00      15.9994
      83     2 O    8    5.022363    4.758142   14.362071      6.00      15.9994
      84     2 O    8   21.742697   22.006921   14.362067      6.00      15.9994
      85     2 O    8   22.006924    5.022362   24.298063      6.00      15.9994
      86     2 O    8    4.758140   21.742698   24.298063      6.00      15.9994
      87     2 O    8   21.742697   22.006926   24.298063      6.00      15.9994
      88     2 O    8    5.022366    4.758141   24.298064      6.00      15.9994
      89     2 O    8   18.208845    8.357682   33.730547      6.00      15.9994
      90     2 O    8    8.556228   18.407407   33.730547      6.00      15.9994
      91     2 O    8   18.407375   18.208852   33.730544      6.00      15.9994
      92     2 O    8    8.357697    8.556206   33.730532      6.00      15.9994
      93     2 O    8    8.556218   18.407394    4.929581      6.00      15.9994
      94     2 O    8   18.208838    8.357663    4.929578      6.00      15.9994
      95     2 O    8    8.357637    8.556238    4.929567      6.00      15.9994
[...]
 flops  1650 x   288 x   320          83635200000     100.0%      0.0%      0.0%
 flops  1650 x   296 x   288          92835072000     100.0%      0.0%      0.0%
 flops  1650 x   288 x   296          92835072000     100.0%      0.0%      0.0%
 flops  1650 x   296 x  1649         115973510400     100.0%      0.0%      0.0%
 flops  1649 x   296 x  1650         115973510400     100.0%      0.0%      0.0%
 flops  1650 x   296 x  1654         116325158400     100.0%      0.0%      0.0%
 flops  1654 x   296 x  1650         116325158400     100.0%      0.0%      0.0%
 flops     5 x    32 x    25         116502848000     100.0%      0.0%      0.0%
 flops    25 x    32 x     5         116502848000     100.0%      0.0%      0.0%
 flops   288 x   288 x   312         120335155200     100.0%      0.0%      0.0%
 flops   288 x   312 x   288         120335155200     100.0%      0.0%      0.0%
 flops   312 x   288 x   288         120335155200     100.0%      0.0%      0.0%
 flops  1649 x   312 x  1650         122242348800     100.0%      0.0%      0.0%
 flops  1650 x   312 x  1649         122242348800     100.0%      0.0%      0.0%
 flops  1654 x   312 x  1650         122613004800     100.0%      0.0%      0.0%
 flops  1650 x   312 x  1654         122613004800     100.0%      0.0%      0.0%
 flops   288 x   288 x   320         123420672000     100.0%      0.0%      0.0%
 flops   288 x   320 x   288         123420672000     100.0%      0.0%      0.0%
 flops   320 x   288 x   288         123420672000     100.0%      0.0%      0.0%
 flops  1650 x   320 x  1649         125376768000     100.0%      0.0%      0.0%
 flops  1649 x   320 x  1650         125376768000     100.0%      0.0%      0.0%
 flops  1650 x   320 x  1654         125756928000     100.0%      0.0%      0.0%
 flops  1654 x   320 x  1650         125756928000     100.0%      0.0%      0.0%
 flops    13 x    25 x   288         142751980800     100.0%      0.0%      0.0%
 flops    25 x    13 x   288         162100224000     100.0%      0.0%      0.0%
 flops   288 x   288 x   296         164396335104     100.0%      0.0%      0.0%
 flops   288 x   296 x   288         164396335104     100.0%      0.0%      0.0%
 flops   296 x   288 x   288         164396335104     100.0%      0.0%      0.0%
 flops   288 x   312 x  1649         200032934400     100.0%      0.0%      0.0%
 flops   312 x   288 x  1649         200032934400     100.0%      0.0%      0.0%
 flops   288 x   312 x  1654         200639462400     100.0%      0.0%      0.0%
 flops   312 x   288 x  1654         200639462400     100.0%      0.0%      0.0%
 flops    25 x    32 x    25         203822080000     100.0%      0.0%      0.0%
 flops   288 x   320 x  1649         205161984000     100.0%      0.0%      0.0%
 flops   320 x   288 x  1649         205161984000     100.0%      0.0%      0.0%
 flops   288 x   320 x  1654         205784064000     100.0%      0.0%      0.0%
 flops   320 x   288 x  1654         205784064000     100.0%      0.0%      0.0%
 flops   288 x   296 x  1649         227729802240     100.0%      0.0%      0.0%
 flops   296 x   288 x  1649         227729802240     100.0%      0.0%      0.0%
 flops   288 x   296 x  1654         228420311040     100.0%      0.0%      0.0%
 flops   296 x   288 x  1654         228420311040     100.0%      0.0%      0.0%
 flops  1649 x   288 x   312         244484697600     100.0%      0.0%      0.0%
 flops  1649 x   312 x   288         244484697600     100.0%      0.0%      0.0%
 flops  1654 x   288 x   312         245226009600     100.0%      0.0%      0.0%
 flops  1654 x   312 x   288         245226009600     100.0%      0.0%      0.0%
 flops  1649 x   288 x   320         250753536000     100.0%      0.0%      0.0%
 flops  1649 x   320 x   288         250753536000     100.0%      0.0%      0.0%
 flops  1654 x   288 x   320         251513856000     100.0%      0.0%      0.0%
 flops  1654 x   320 x   288         251513856000     100.0%      0.0%      0.0%
 flops  1649 x   288 x   296         278336424960     100.0%      0.0%      0.0%
 flops  1649 x   296 x   288         278336424960     100.0%      0.0%      0.0%
 flops  1654 x   288 x   296         279180380160     100.0%      0.0%      0.0%
 flops  1654 x   296 x   288         279180380160     100.0%      0.0%      0.0%
 flops  1649 x   296 x  1649         347709670272     100.0%      0.0%      0.0%
 flops  1649 x   296 x  1654         348763974912     100.0%      0.0%      0.0%
 flops  1654 x   296 x  1649         348763974912     100.0%      0.0%      0.0%
 flops  1654 x   296 x  1654         349821476352     100.0%      0.0%      0.0%
 flops  1649 x   312 x  1649         366504787584     100.0%      0.0%      0.0%
 flops  1649 x   312 x  1654         367616081664     100.0%      0.0%      0.0%
 flops  1654 x   312 x  1649         367616081664     100.0%      0.0%      0.0%
 flops  1654 x   312 x  1654         368730745344     100.0%      0.0%      0.0%
 flops  1649 x   320 x  1649         375902346240     100.0%      0.0%      0.0%
 flops  1649 x   320 x  1654         377042135040     100.0%      0.0%      0.0%
 flops  1654 x   320 x  1649         377042135040     100.0%      0.0%      0.0%
 flops  1654 x   320 x  1654         378185379840     100.0%      0.0%      0.0%
 flops  1650 x   288 x  1650         413994240000     100.0%      0.0%      0.0%
 flops     5 x    32 x    13         466917010560     100.0%      0.0%      0.0%
 flops    13 x    32 x     5         466917010560     100.0%      0.0%      0.0%
 flops    13 x    13 x   288         605746791936     100.0%      0.0%      0.0%
 flops   288 x   288 x  1650         751348224000     100.0%      0.0%      0.0%
 flops  1650 x   288 x   288         918314496000     100.0%      0.0%      0.0%
 flops    13 x    32 x    25         928670142400     100.0%      0.0%      0.0%
 flops    25 x    32 x    13         928670142400     100.0%      0.0%      0.0%
 flops  1649 x   288 x  1650        1241230003200     100.0%      0.0%      0.0%
 flops  1650 x   288 x  1649        1241230003200     100.0%      0.0%      0.0%
 flops  1654 x   288 x  1650        1244993587200     100.0%      0.0%      0.0%
 flops  1650 x   288 x  1654        1244993587200     100.0%      0.0%      0.0%
 flops   288 x   288 x   288        1515112169472     100.0%      0.0%      0.0%
 flops   288 x   288 x  1649        2252678584320     100.0%      0.0%      0.0%
 flops   288 x   288 x  1654        2259509022720     100.0%      0.0%      0.0%
 flops  1649 x   288 x   288        2753273825280     100.0%      0.0%      0.0%
 flops  1654 x   288 x   288        2761622138880     100.0%      0.0%      0.0%
 flops    13 x    32 x    13        3662267953344     100.0%      0.0%      0.0%
 flops  1649 x   288 x  1649        3721433227776     100.0%      0.0%      0.0%
 flops  1649 x   288 x  1654        3732717136896     100.0%      0.0%      0.0%
 flops  1654 x   288 x  1649        3732717136896     100.0%      0.0%      0.0%
 flops  1654 x   288 x  1654        3744035260416     100.0%      0.0%      0.0%
 flops inhomo. stacks                           0       0.0%      0.0%      0.0%
 flops total                        57.350279E+12     100.0%      0.0%      0.0%
 flops max/rank                      1.242336E+12     100.0%      0.0%      0.0%
 matmuls inhomo. stacks                         0       0.0%      0.0%      0.0%
 matmuls total                          752109581     100.0%      0.0%      0.0%
 number of processed stacks               1111306     100.0%      0.0%      0.0%
 average stack size                                   676.8       0.0       0.0
 marketing flops                    93.571189E+12
 -------------------------------------------------------------------------------
 # multiplications                            519
 max memory usage/rank               1.597936E+09
 # max total images/rank                        1
 # max 3D layers                                1
 # MPI messages exchanged                  305172
 MPI messages size (bytes):
  total size                       992.624837E+09
  min size                           0.000000E+00
  max size                          21.885728E+06
  average size                       3.252673E+06
 MPI breakdown and total messages size (bytes):
             size <=      128                1680                        0
       128 < size <=     8192                   0                        0
      8192 < size <=    32768                   0                        0
     32768 < size <=   131072                  84                  6273024
    131072 < size <=  4194304              263214             563275853952
   4194304 < size <= 16777216               26082             121506425424
  16777216 < size                           14112             307838548224
 -------------------------------------------------------------------------------
 
 MEMORY| Estimated peak process memory [MiB]                                1524

 -------------------------------------------------------------------------------
 ----                             MULTIGRID INFO                            ----
 -------------------------------------------------------------------------------
 count for grid        1:        2988335          cutoff [a.u.]          300.00
 count for grid        2:        2017938          cutoff [a.u.]          100.00
 count for grid        3:        1407197          cutoff [a.u.]           33.33
 count for grid        4:         618105          cutoff [a.u.]           11.11
 total gridlevel count  :        7031575

 -------------------------------------------------------------------------------
 -                                                                             -
 -                         MESSAGE PASSING PERFORMANCE                         -
 -                                                                             -
 -------------------------------------------------------------------------------

 ROUTINE             CALLS      AVE VOLUME [Bytes]
 MP_Group               54
 MP_Bcast             4923                 338398.
 MP_Allreduce         2784                   1845.
 MP_Sync                30
 MP_Alltoall          2530               12274535.
 MP_ISendRecv         4416                 383040.
 MP_Wait             46992
 MP_comm_split          26
 MP_ISend            19453                1245730.
 MP_IRecv            19453                1242305.
 MP_Recv               125                2959104.
 MP_Memory           22548
 -------------------------------------------------------------------------------


 -------------------------------------------------------------------------------
 -                                                                             -
 -                           R E F E R E N C E S                               -
 -                                                                             -
 -------------------------------------------------------------------------------
 
 CP2K version 5.1, the CP2K developers group (2017).
 CP2K is freely available from https://www.cp2k.org/ .

 Schuett, Ole; Messmer, Peter; Hutter, Juerg; VandeVondele, Joost. 
 Electronic Structure Calculations on Graphics Processing Units, John Wiley & Sons, Ltd, 173-190 (2016). 
 GPU-Accelerated Sparse Matrix-Matrix Multiplication for Linear Scaling Density Functional Theory.
 http://dx.doi.org/10.1002/9781118670712.ch8


 Borstnik, U; VandeVondele, J; Weber, V; Hutter, J. 
 PARALLEL COMPUTING, 40 (5-6), 47-58 (2014). 
 Sparse matrix multiplication: The distributed block-compressed sparse
 row library.
 http://dx.doi.org/10.1016/j.parco.2014.03.012


 Hutter, J; Iannuzzi, M; Schiffmann, F; VandeVondele, J. 
 WILEY INTERDISCIPLINARY REVIEWS-COMPUTATIONAL MOLECULAR SCIENCE, 4 (1), 15-25 (2014). 
 CP2K: atomistic simulations of condensed matter systems.
 http://dx.doi.org/10.1002/wcms.1159


 Grimme, S; Ehrlich, S; Goerigk, L. 
 JOURNAL OF COMPUTATIONAL CHEMISTRY, 32, 1456 (2011). 
 Effect of the damping function in dispersion corrected density functional theory.
 http://dx.doi.org/10.1002/jcc.21759


 Grimme, S; Antony, J; Ehrlich, S; Krieg, H. 
 JOURNAL OF CHEMICAL PHYSICS, 132 (15), 154104 (2010). 
 A consistent and accurate ab initio parametrization of density
 functional dispersion correction (DFT-D) for the 94 elements H-Pu.
 http://dx.doi.org/10.1063/1.3382344


 VandeVondele, J; Hutter, J. 
 JOURNAL OF CHEMICAL PHYSICS, 127 (11), 114105 (2007). 
 Gaussian basis sets for accurate calculations on molecular systems in
 gas and condensed phases.
 http://dx.doi.org/10.1063/1.2770708


 Krack, M. 
 THEORETICAL CHEMISTRY ACCOUNTS, 114 (1-3), 145-152 (2005). 
 Pseudopotentials for H to Kr optimized for gradient-corrected
 exchange-correlation functionals.
 http://dx.doi.org/10.1007/s00214-005-0655-y


 VandeVondele, J; Krack, M; Mohamed, F; Parrinello, M; Chassaing, T;
 Hutter, J. COMPUTER PHYSICS COMMUNICATIONS, 167 (2), 103-128 (2005). 
 QUICKSTEP: Fast and accurate density functional calculations using a
 mixed Gaussian and plane waves approach.
 http://dx.doi.org/10.1016/j.cpc.2004.12.014


 Frigo, M; Johnson, SG. 
 PROCEEDINGS OF THE IEEE, 93 (2), 216-231 (2005). 
 The design and implementation of FFTW3.
 http://dx.doi.org/10.1109/JPROC.2004.840301


 VandeVondele, J; Hutter, J. 
 JOURNAL OF CHEMICAL PHYSICS, 118 (10), 4365-4369 (2003). 
 An efficient orbital transformation method for electronic structure
 calculations.
 http://dx.doi.org/10.1063/1.1543154


 Hartwigsen, C; Goedecker, S; Hutter, J. 
 PHYSICAL REVIEW B, 58 (7), 3641-3662 (1998). 
 Relativistic separable dual-space Gaussian pseudopotentials from H to Rn.
 http://dx.doi.org/10.1103/PhysRevB.58.3641


 Lippert, G; Hutter, J; Parrinello, M. 
 MOLECULAR PHYSICS, 92 (3), 477-487 (1997). 
 A hybrid Gaussian and plane wave density functional scheme.
 http://dx.doi.org/10.1080/002689797170220


 Perdew, JP; Burke, K; Ernzerhof, M. 
 PHYSICAL REVIEW LETTERS, 77 (18), 3865-3868 (1996). 
 Generalized gradient approximation made simple.
 http://dx.doi.org/10.1103/PhysRevLett.77.3865


 Goedecker, S; Teter, M; Hutter, J. 
 PHYSICAL REVIEW B, 54 (3), 1703-1710 (1996). 
 Separable dual-space Gaussian pseudopotentials.
 http://dx.doi.org/10.1103/PhysRevB.54.1703


 -------------------------------------------------------------------------------
 -                                                                             -
 -                                T I M I N G                                  -
 -                                                                             -
 -------------------------------------------------------------------------------
 SUBROUTINE                       CALLS  ASD         SELF TIME        TOTAL TIME
                                MAXIMUM       AVERAGE  MAXIMUM  AVERAGE  MAXIMUM
 CP2K                                 1  1.0    0.078    0.114  234.240  234.244
 qs_energies                          1  2.0    0.007    0.026  232.449  232.455
 scf_env_do_scf                       1  3.0    0.000    0.001  225.922  225.924
 scf_env_do_scf_inner_loop           11  4.0    0.001    0.001  163.791  163.827
 qs_ks_update_qs_env                 12  5.0    0.000    0.000   88.757   88.900
 rebuild_ks_matrix                   11  6.0    0.000    0.000   88.712   88.856
 qs_ks_build_kohn_sham_matrix        11  7.0    0.006    0.009   88.712   88.856
 pw_transfer                        396  9.7    0.031    0.038   66.458   67.585
 fft_wrap_pw1pw2                    374 10.7    0.004    0.004   66.155   67.288
 fft_wrap_pw1pw2_300                236 11.9    3.755    4.232   63.341   64.478
 init_scf_loop                        1  4.0    0.000    0.000   62.048   62.048
 qs_vxc_create                       11  8.0    0.001    0.003   56.129   56.554
 xc_vxc_pw_create                    11  9.0    0.893    1.028   56.128   56.554
 fft3d_ps                           374 12.7   32.323   34.616   54.305   55.876
 dbcsr_multiply_generic             519 10.1    0.043    0.047   54.463   54.940
 prepare_preconditioner               1  5.0    0.000    0.000   53.284   53.295
 qs_scf_new_mos                      11  5.0    0.000    0.000   53.053   53.123
 qs_scf_loop_do_ot                   11  6.0    0.000    0.001   53.053   53.123
 make_preconditioner                  2  6.0    0.002    0.003   51.638   51.645
 ot_scf_mini                         11  7.0    0.001    0.002   50.699   50.767
 make_full_all                        2  7.0    0.003    0.006   49.978   49.987
 multiply_cannon                    519 11.1    0.097    0.107   43.616   46.104
 cp_fm_syevd                         28 10.4    2.114    7.617   41.374   41.381
 cp_fm_syevd_base                    28 11.4   39.228   41.216   39.228   41.216
 multiply_cannon_multrec           3633 12.1   32.433   34.725   32.442   34.734
 qs_rho_update_rho                   12  5.0    0.000    0.000   32.555   32.573
 calculate_rho_elec                  24  6.0   11.122   11.678   32.555   32.573
 ot_mini                             11  8.0    0.002    0.004   32.372   32.450
 xc_rho_set_and_dset_create          11 10.0    0.360    0.435   30.212   31.373
 sum_up_and_integrate                11  8.0    0.322    0.360   22.586   22.591
 integrate_v_rspace                  22  9.0    9.401    9.770   22.264   22.288
 density_rs2pw                       24  7.0    0.002    0.002   20.070   20.712
 apply_preconditioner_dbcsr          24 10.0    0.001    0.004   18.146   18.302
 apply_all                           24 11.0    0.021    0.024   18.145   18.302
 mp_alltoall_z22v                   374 14.7   14.213   18.192   14.213   18.192
 ot_diis_step                        11  9.0    0.007    0.010   17.536   17.537
 x_to_yz                            189 14.3    4.801    5.181   12.187   15.526
 qs_ot_get_derivative                22  9.0    0.000    0.001   14.793   14.866
 mp_waitall_1                     42063 13.3   11.242   13.898   11.242   13.898
 potential_pw2rs                     22 10.0    0.022    0.025   12.247   12.279
 rs_pw_transfer                     185  9.4    0.002    0.002   11.278   11.739
 yz_to_x                            185 13.1    2.956    3.232    9.784   10.938
 multiply_cannon_metrocomm1        3633 12.1    0.020    0.024    6.433   10.197
 qs_ot_get_p                         24  7.8    0.001    0.007    9.931   10.163
 xc_functional_eval                  11 11.0    0.000    0.000    7.880    9.104
 pbe_lsd_eval                        11 12.0    7.880    9.104    7.880    9.104
 qs_ot_get_derivative_diag           20 10.0    0.001    0.002    8.952    9.017
 make_m2s                          1038 11.1    0.034    0.038    7.533    7.855
 cp_dbcsr_syevd                      26  9.6    0.002    0.004    7.826    7.846
 qs_ot_p2m_diag                      22  9.0    0.094    0.102    7.436    7.474
 cp_fm_cholesky_reduce                2  8.0    6.721    6.723    6.721    6.723
 make_images                       1038 12.1    0.190    0.201    5.456    5.818
 multiply_cannon_metrocomm3        3633 12.1    0.012    0.014    1.241    5.370
 init_scf_run                         1  3.0    0.002    0.008    5.122    5.125
 scf_env_initial_rho_setup            1  4.0    0.001    0.005    5.119    5.122
 mp_irecv_dv                      11874 12.6    1.660    5.025    1.660    5.025
 -------------------------------------------------------------------------------

 The number of warnings for this run is : 0
 
 -------------------------------------------------------------------------------
  **** **** ******  **  PROGRAM ENDED AT                 2018-10-11 09:16:53.514
 ***** ** ***  *** **   PROGRAM RAN ON                                      g013
 **    ****   ******    PROGRAM RAN BY                                     macer
 ***** **    ** ** **   PROGRAM PROCESS ID                                  6840
  **** **  *******  **  PROGRAM STOPPED IN                /home/macer/5_combined
