 DBCSR| Multiplication driver                                               BLAS
 DBCSR| Multrec recursion limit                                              512
 DBCSR| Multiplication stack size                                           1000
 DBCSR| Maximum elements for images                                    UNLIMITED
 DBCSR| Multiplicative factor virtual images                                   1
 DBCSR| Multiplication size stacks                                             3
 DBCSR| Number of 3D layers                                               SINGLE
 DBCSR| Use MPI memory allocation                                              T
 DBCSR| Use RMA algorithm                                                      F
 DBCSR| Use Communication thread                                               T
 DBCSR| Communication thread load                                             87


  **** **** ******  **  PROGRAM STARTED AT               2018-10-04 10:46:51.373
 ***** ** ***  *** **   PROGRAM STARTED ON                                  f210
 **    ****   ******    PROGRAM STARTED BY                                ongari
 ***** **    ** ** **   PROGRAM PROCESS ID                                  2220
  **** **  *******  **  PROGRAM STARTED IN /scratch/ongari/proj45_cp2krestart/1_
                                           geoopt_AB

 CP2K| version string:                                          CP2K version 5.1
 CP2K| source code revision number:                                    svn:18091
 CP2K| cp2kflags: libint fftw3 pexsi parallel mpi3 scalapack libderiv_max_am1=5 
 CP2K|            libint_max_am=6
 CP2K| is freely available from                            https://www.cp2k.org/
 CP2K| Program compiled at                          Thu Jul 5 11:15:01 CEST 2018
 CP2K| Program compiled on                                                  f016
 CP2K| Program compiled for                  linux-rhel7-x86_E5v4_Mellanox-intel
 CP2K| Data directory path    /dev/shm/scitasbuild/spack-stage/spack-stage-ZDQwS
 CP2K| Input file name                                                  CP2K.inp
 
 GLOBAL| Force Environment number                                              1
 GLOBAL| Basis set file name                                      ./BASIS_MOLOPT
 GLOBAL| Potential file name                                    ./GTH_POTENTIALS
 GLOBAL| MM Potential file name                                     MM_POTENTIAL
 GLOBAL| Coordinate file name                                      __STD_INPUT__
 GLOBAL| Method name                                                        CP2K
 GLOBAL| Project name                                                       cp2k
 GLOBAL| Preferred FFT library                                             FFTW3
 GLOBAL| Preferred diagonalization lib.                                       SL
 GLOBAL| Run type                                                        GEO_OPT
 GLOBAL| All-to-all communication in single precision                          F
 GLOBAL| FFTs using library dependent lengths                                  F
 GLOBAL| Global print level                                               MEDIUM
 GLOBAL| Total number of message passing processes                            25
 GLOBAL| Number of threads for this process                                    1
 GLOBAL| This output is from process                                           0
 GLOBAL| CPU model name :  Intel(R) Xeon(R) CPU E5-2690 v4 @ 2.60GHz

 MEMORY| system memory details [Kb]
 MEMORY|                        rank 0           min           max       average
 MEMORY| MemTotal            131627068     131627068     131627068     131627068
 MEMORY| MemFree             115537964     115537964     115537964     115537964
 MEMORY| Buffers                  6384          6384          6384          6384
 MEMORY| Cached                 169444        169444        169444        169444
 MEMORY| Slab                  1333124       1333124       1333124       1333124
 MEMORY| SReclaimable            56156         56156         56156         56156
 MEMORY| MemLikelyFree       115769948     115769948     115769948     115769948


 *** Fundamental physical constants (SI units) ***

 *** Literature: B. J. Mohr and B. N. Taylor,
 ***             CODATA recommended values of the fundamental physical
 ***             constants: 2006, Web Version 5.1
 ***             http://physics.nist.gov/constants

 Speed of light in vacuum [m/s]                             2.99792458000000E+08
 Magnetic constant or permeability of vacuum [N/A**2]       1.25663706143592E-06
 Electric constant or permittivity of vacuum [F/m]          8.85418781762039E-12
 Planck constant (h) [J*s]                                  6.62606896000000E-34
 Planck constant (h-bar) [J*s]                              1.05457162825177E-34
 Elementary charge [C]                                      1.60217648700000E-19
 Electron mass [kg]                                         9.10938215000000E-31
 Electron g factor [ ]                                     -2.00231930436220E+00
 Proton mass [kg]                                           1.67262163700000E-27
 Fine-structure constant                                    7.29735253760000E-03
 Rydberg constant [1/m]                                     1.09737315685270E+07
 Avogadro constant [1/mol]                                  6.02214179000000E+23
 Boltzmann constant [J/K]                                   1.38065040000000E-23
 Atomic mass unit [kg]                                      1.66053878200000E-27
 Bohr radius [m]                                            5.29177208590000E-11

 *** Conversion factors ***

 [u] -> [a.u.]                                              1.82288848426455E+03
 [Angstrom] -> [Bohr] = [a.u.]                              1.88972613288564E+00
 [a.u.] = [Bohr] -> [Angstrom]                              5.29177208590000E-01
 [a.u.] -> [s]                                              2.41888432650478E-17
 [a.u.] -> [fs]                                             2.41888432650478E-02
 [a.u.] -> [J]                                              4.35974393937059E-18
 [a.u.] -> [N]                                              8.23872205491840E-08
 [a.u.] -> [K]                                              3.15774647902944E+05
 [a.u.] -> [kJ/mol]                                         2.62549961709828E+03
 [a.u.] -> [kcal/mol]                                       6.27509468713739E+02
 [a.u.] -> [Pa]                                             2.94210107994716E+13
 [a.u.] -> [bar]                                            2.94210107994716E+08
 [a.u.] -> [atm]                                            2.90362800883016E+08
 [a.u.] -> [eV]                                             2.72113838565563E+01
 [a.u.] -> [Hz]                                             6.57968392072181E+15
 [a.u.] -> [1/cm] (wave numbers)                            2.19474631370540E+05
 [a.u./Bohr**2] -> [1/cm]                                   5.14048714338585E+03
 

 CELL_TOP| Volume [angstrom^3]:                                         3375.000
 CELL_TOP| Vector a [angstrom    15.000     0.000     0.000    |a| =      15.000
 CELL_TOP| Vector b [angstrom     0.000    15.000     0.000    |b| =      15.000
 CELL_TOP| Vector c [angstrom     0.000     0.000    15.000    |c| =      15.000
 CELL_TOP| Angle (b,c), alpha [degree]:                                   90.000
 CELL_TOP| Angle (a,c), beta  [degree]:                                   90.000
 CELL_TOP| Angle (a,b), gamma [degree]:                                   90.000
 CELL_TOP| Numerically orthorhombic:                                         YES
 
 GENERATE|  Preliminary Number of Bonds generated:                             0
 GENERATE|  Achieved consistency in connectivity generation.

 CELL| Volume [angstrom^3]:                                             3375.000
 CELL| Vector a [angstrom]:      15.000     0.000     0.000    |a| =      15.000
 CELL| Vector b [angstrom]:       0.000    15.000     0.000    |b| =      15.000
 CELL| Vector c [angstrom]:       0.000     0.000    15.000    |c| =      15.000
 CELL| Angle (b,c), alpha [degree]:                                       90.000
 CELL| Angle (a,c), beta  [degree]:                                       90.000
 CELL| Angle (a,b), gamma [degree]:                                       90.000
 CELL| Numerically orthorhombic:                                             YES

 CELL_REF| Volume [angstrom^3]:                                         3375.000
 CELL_REF| Vector a [angstrom    15.000     0.000     0.000    |a| =      15.000
 CELL_REF| Vector b [angstrom     0.000    15.000     0.000    |b| =      15.000
 CELL_REF| Vector c [angstrom     0.000     0.000    15.000    |c| =      15.000
 CELL_REF| Angle (b,c), alpha [degree]:                                   90.000
 CELL_REF| Angle (a,c), beta  [degree]:                                   90.000
 CELL_REF| Angle (a,b), gamma [degree]:                                   90.000
 CELL_REF| Numerically orthorhombic:                                         YES

 *******************************************************************************
 *******************************************************************************
 **                                                                           **
 **     #####                         ##              ##                      **
 **    ##   ##            ##          ##              ##                      **
 **   ##     ##                       ##            ######                    **
 **   ##     ##  ##   ##  ##   #####  ##  ##   ####   ##    #####    #####    **
 **   ##     ##  ##   ##  ##  ##      ## ##   ##      ##   ##   ##  ##   ##   **
 **   ##  ## ##  ##   ##  ##  ##      ####     ###    ##   ######   ######    **
 **    ##  ###   ##   ##  ##  ##      ## ##      ##   ##   ##       ##        **
 **     #######   #####   ##   #####  ##  ##  ####    ##    #####   ##        **
 **           ##                                                    ##        **
 **                                                                           **
 **                                                ... make the atoms dance   **
 **                                                                           **
 **            Copyright (C) by CP2K developers group (2000 - 2017)           **
 **                                                                           **
 *******************************************************************************

 DFT| Spin restricted Kohn-Sham (RKS) calculation                            RKS
 DFT| Multiplicity                                                             1
 DFT| Number of spin states                                                    1
 DFT| Charge                                                                   0
 DFT| Self-interaction correction (SIC)                                       NO
 DFT| Cutoffs: density                                              1.000000E-10
 DFT|          gradient                                             1.000000E-10
 DFT|          tau                                                  1.000000E-10
 DFT|          cutoff_smoothing_range                               0.000000E+00
 DFT| XC density smoothing                                                  NONE
 DFT| XC derivatives                                                          PW
 FUNCTIONAL| ROUTINE=NEW
 FUNCTIONAL| PBE:
 FUNCTIONAL| J.P.Perdew, K.Burke, M.Ernzerhof, Phys. Rev. Letter, vol. 77, n 18,
 FUNCTIONAL|  pp. 3865-3868, (1996){spin unpolarized}                           
 vdW POTENTIAL|                                                   Pair Potential
 vdW POTENTIAL|          DFT-D3 (Version 3.1)
 vdW POTENTIAL|          Potential Form: S. Grimme et al, JCP 132: 154104 (2010)
 vdW POTENTIAL|          BJ Damping: S. Grimme et al, JCC 32: 1456 (2011)
 vdW POTENTIAL|          Cutoff Radius [Bohr]:                             20.00
 vdW POTENTIAL|          s6 Scaling Factor:                               1.0000
 vdW POTENTIAL|          a1 Damping Factor:                               0.4289
 vdW POTENTIAL|          s8 Scaling Factor:                               0.7875
 vdW POTENTIAL|          a2 Damping Factor:                               4.4407
 vdW POTENTIAL|          Cutoff for CN calculation:                   0.1000E-05

 QS| Method:                                                                 GPW
 QS| Density plane wave grid type                        NON-SPHERICAL FULLSPACE
 QS| Number of grid levels:                                                    4
 QS| Density cutoff [a.u.]:                                                200.0
 QS| Multi grid cutoff [a.u.]: 1) grid level                               200.0
 QS|                           2) grid level                                66.7
 QS|                           3) grid level                                22.2
 QS|                           4) grid level                                 7.4
 QS| Grid level progression factor:                                          3.0
 QS| Relative density cutoff [a.u.]:                                        25.0
 QS| Consistent realspace mapping and integration 
 QS| Interaction thresholds: eps_pgf_orb:                                1.0E-05
 QS|                         eps_filter_matrix:                          0.0E+00
 QS|                         eps_core_charge:                            1.0E-12
 QS|                         eps_rho_gspace:                             1.0E-10
 QS|                         eps_rho_rspace:                             1.0E-10
 QS|                         eps_gvg_rspace:                             1.0E-05
 QS|                         eps_ppl:                                    1.0E-02
 QS|                         eps_ppnl:                                   1.0E-07


 ATOMIC KIND INFORMATION

  1. Atomic kind: O                                     Number of atoms:       3

     Orbital Basis Set                                        DZVP-MOLOPT-SR-GTH

       Number of orbital shell sets:                                           1
       Number of orbital shells:                                               5
       Number of primitive Cartesian functions:                                5
       Number of Cartesian basis functions:                                   14
       Number of spherical basis functions:                                   13
       Norm type:                                                              2

       Normalised Cartesian orbitals:

                        Set   Shell   Orbital            Exponent    Coefficient

                          1       1    2s               10.389228       0.396646
                                                         3.849621       0.208811
                                                         1.388401      -0.301641
                                                         0.496955      -0.274061
                                                         0.162492      -0.033677

                          1       2    3s               10.389228       0.303673
                                                         3.849621       0.240943
                                                         1.388401      -0.313066
                                                         0.496955      -0.043055
                                                         0.162492       0.213991

                          1       3    3px              10.389228      -1.530415
                                                         3.849621      -1.371928
                                                         1.388401      -0.761951
                                                         0.496955      -0.253695
                                                         0.162492      -0.035541
                          1       3    3py              10.389228      -1.530415
                                                         3.849621      -1.371928
                                                         1.388401      -0.761951
                                                         0.496955      -0.253695
                                                         0.162492      -0.035541
                          1       3    3pz              10.389228      -1.530415
                                                         3.849621      -1.371928
                                                         1.388401      -0.761951
                                                         0.496955      -0.253695
                                                         0.162492      -0.035541

                          1       4    4px              10.389228      -0.565392
                                                         3.849621      -0.038231
                                                         1.388401      -0.382373
                                                         0.496955       0.179070
                                                         0.162492       0.122714
                          1       4    4py              10.389228      -0.565392
                                                         3.849621      -0.038231
                                                         1.388401      -0.382373
                                                         0.496955       0.179070
                                                         0.162492       0.122714
                          1       4    4pz              10.389228      -0.565392
                                                         3.849621      -0.038231
                                                         1.388401      -0.382373
                                                         0.496955       0.179070
                                                         0.162492       0.122714

                          1       5    4dx2             10.389228       1.867377
                                                         3.849621       0.670994
                                                         1.388401       1.353441
                                                         0.496955       0.273538
                                                         0.162492       0.006620
                          1       5    4dxy             10.389228       3.234392
                                                         3.849621       1.162195
                                                         1.388401       2.344229
                                                         0.496955       0.473781
                                                         0.162492       0.011466
                          1       5    4dxz             10.389228       3.234392
                                                         3.849621       1.162195
                                                         1.388401       2.344229
                                                         0.496955       0.473781
                                                         0.162492       0.011466
                          1       5    4dy2             10.389228       1.867377
                                                         3.849621       0.670994
                                                         1.388401       1.353441
                                                         0.496955       0.273538
                                                         0.162492       0.006620
                          1       5    4dyz             10.389228       3.234392
                                                         3.849621       1.162195
                                                         1.388401       2.344229
                                                         0.496955       0.473781
                                                         0.162492       0.011466
                          1       5    4dz2             10.389228       1.867377
                                                         3.849621       0.670994
                                                         1.388401       1.353441
                                                         0.496955       0.273538
                                                         0.162492       0.006620

     GTH Potential information for                                       GTH-PBE

       Description:                       Goedecker-Teter-Hutter pseudopotential
                                           Goedecker et al., PRB 54, 1703 (1996)
                                          Hartwigsen et al., PRB 58, 3641 (1998)
                                                      Krack, TCA 114, 145 (2005)

       Gaussian exponent of the core charge distribution:               8.360253
       Electronic configuration (s p d ...):                               2   4

       Parameters of the local part of the GTH pseudopotential:

                          rloc        C1          C2          C3          C4
                        0.244554  -16.667215    2.487311

       Parameters of the non-local part of the GTH pseudopotential:

                   l      r(l)      h(i,j,l)

                   0    0.220956   18.337458
                   1    0.211332

  2. Atomic kind: H                                     Number of atoms:       2

     Orbital Basis Set                                        DZVP-MOLOPT-SR-GTH

       Number of orbital shell sets:                                           1
       Number of orbital shells:                                               3
       Number of primitive Cartesian functions:                                5
       Number of Cartesian basis functions:                                    5
       Number of spherical basis functions:                                    5
       Norm type:                                                              2

       Normalised Cartesian orbitals:

                        Set   Shell   Orbital            Exponent    Coefficient

                          1       1    2s               10.068468      -0.133023
                                                         2.680223      -0.177618
                                                         0.791502      -0.258419
                                                         0.239116      -0.107525
                                                         0.082193      -0.014019

                          1       2    3s               10.068468       0.344673
                                                         2.680223       1.819821
                                                         0.791502      -0.999069
                                                         0.239116       0.017430
                                                         0.082193       0.082660

                          1       3    3px              10.068468       0.155326
                                                         2.680223       0.367157
                                                         0.791502       0.311480
                                                         0.239116       0.080105
                                                         0.082193       0.033440
                          1       3    3py              10.068468       0.155326
                                                         2.680223       0.367157
                                                         0.791502       0.311480
                                                         0.239116       0.080105
                                                         0.082193       0.033440
                          1       3    3pz              10.068468       0.155326
                                                         2.680223       0.367157
                                                         0.791502       0.311480
                                                         0.239116       0.080105
                                                         0.082193       0.033440

     GTH Potential information for                                       GTH-PBE

       Description:                       Goedecker-Teter-Hutter pseudopotential
                                           Goedecker et al., PRB 54, 1703 (1996)
                                          Hartwigsen et al., PRB 58, 3641 (1998)
                                                      Krack, TCA 114, 145 (2005)

       Gaussian exponent of the core charge distribution:              12.500000
       Electronic configuration (s p d ...):                                   1

       Parameters of the local part of the GTH pseudopotential:

                          rloc        C1          C2          C3          C4
                        0.200000   -4.178900    0.724463

  3. Atomic kind: C                                     Number of atoms:       1

     Orbital Basis Set                                        DZVP-MOLOPT-SR-GTH

       Number of orbital shell sets:                                           1
       Number of orbital shells:                                               5
       Number of primitive Cartesian functions:                                5
       Number of Cartesian basis functions:                                   14
       Number of spherical basis functions:                                   13
       Norm type:                                                              2

       Normalised Cartesian orbitals:

                        Set   Shell   Orbital            Exponent    Coefficient

                          1       1    2s                5.605331       0.322515
                                                         2.113016       0.213043
                                                         0.769911      -0.209686
                                                         0.348157      -0.219794
                                                         0.128212      -0.022789

                          1       2    3s                5.605331       0.552234
                                                         2.113016       0.082072
                                                         0.769911       0.007843
                                                         0.348157       0.136893
                                                         0.128212       0.074283

                          1       3    3px               5.605331      -0.703879
                                                         2.113016      -0.642521
                                                         0.769911      -0.374851
                                                         0.348157      -0.139743
                                                         0.128212      -0.027849
                          1       3    3py               5.605331      -0.703879
                                                         2.113016      -0.642521
                                                         0.769911      -0.374851
                                                         0.348157      -0.139743
                                                         0.128212      -0.027849
                          1       3    3pz               5.605331      -0.703879
                                                         2.113016      -0.642521
                                                         0.769911      -0.374851
                                                         0.348157      -0.139743
                                                         0.128212      -0.027849

                          1       4    4px               5.605331      -0.480376
                                                         2.113016      -0.552894
                                                         0.769911      -0.316145
                                                         0.348157       0.210505
                                                         0.128212       0.076095
                          1       4    4py               5.605331      -0.480376
                                                         2.113016      -0.552894
                                                         0.769911      -0.316145
                                                         0.348157       0.210505
                                                         0.128212       0.076095
                          1       4    4pz               5.605331      -0.480376
                                                         2.113016      -0.552894
                                                         0.769911      -0.316145
                                                         0.348157       0.210505
                                                         0.128212       0.076095

                          1       5    4dx2              5.605331       0.640026
                                                         2.113016       0.274300
                                                         0.769911       0.446711
                                                         0.348157       0.028674
                                                         0.128212       0.029790
                          1       5    4dxy              5.605331       1.108557
                                                         2.113016       0.475102
                                                         0.769911       0.773726
                                                         0.348157       0.049666
                                                         0.128212       0.051599
                          1       5    4dxz              5.605331       1.108557
                                                         2.113016       0.475102
                                                         0.769911       0.773726
                                                         0.348157       0.049666
                                                         0.128212       0.051599
                          1       5    4dy2              5.605331       0.640026
                                                         2.113016       0.274300
                                                         0.769911       0.446711
                                                         0.348157       0.028674
                                                         0.128212       0.029790
                          1       5    4dyz              5.605331       1.108557
                                                         2.113016       0.475102
                                                         0.769911       0.773726
                                                         0.348157       0.049666
                                                         0.128212       0.051599
                          1       5    4dz2              5.605331       0.640026
                                                         2.113016       0.274300
                                                         0.769911       0.446711
                                                         0.348157       0.028674
                                                         0.128212       0.029790

     GTH Potential information for                                       GTH-PBE

       Description:                       Goedecker-Teter-Hutter pseudopotential
                                           Goedecker et al., PRB 54, 1703 (1996)
                                          Hartwigsen et al., PRB 58, 3641 (1998)
                                                      Krack, TCA 114, 145 (2005)

       Gaussian exponent of the core charge distribution:               4.364419
       Electronic configuration (s p d ...):                               2   2

       Parameters of the local part of the GTH pseudopotential:

                          rloc        C1          C2          C3          C4
                        0.338471   -8.803674    1.339211

       Parameters of the non-local part of the GTH pseudopotential:

                   l      r(l)      h(i,j,l)

                   0    0.302576    9.622487
                   1    0.291507


 MOLECULE KIND INFORMATION


 All atoms are their own molecule, skipping detailed information


 TOTAL NUMBERS AND MAXIMUM NUMBERS

  Total number of            - Atomic kinds:                                   3
                             - Atoms:                                          6
                             - Shell sets:                                     6
                             - Shells:                                        26
                             - Primitive Cartesian functions:                 30
                             - Cartesian basis functions:                     66
                             - Spherical basis functions:                     62

  Maximum angular momentum of- Orbital basis functions:                        2
                             - Local part of the GTH pseudopotential:          2
                             - Non-local part of the GTH pseudopotential:      0


 MODULE QUICKSTEP:  ATOMIC COORDINATES IN angstrom

  Atom  Kind  Element       X           Y           Z          Z(eff)       Mass

       1     1 O    8    5.303850    8.838450    7.071450      6.00      15.9994
       2     2 H    1    5.808600    8.441700    6.317550      1.00       1.0079
       3     2 H    1    5.229450    8.105700    7.733250      1.00       1.0079
       4     1 O    8    7.869150    7.264350    9.070500      6.00      15.9994
       5     3 C    6    8.311950    7.520850    7.989150      4.00      12.0107
       6     1 O    8    8.753850    7.777650    6.907650      6.00      15.9994




 SCF PARAMETERS         Density guess:                                    ATOMIC
                        --------------------------------------------------------
                        max_scf:                                              50
                        max_scf_history:                                       0
                        max_diis:                                              4
                        --------------------------------------------------------
                        eps_scf:                                        1.00E-06
                        eps_scf_history:                                0.00E+00
                        eps_diis:                                       1.00E-01
                        eps_eigval:                                     1.00E-05
                        --------------------------------------------------------
                        level_shift [a.u.]:                                 0.00
                        --------------------------------------------------------
                        Outer loop SCF in use 
                        No variables optimised in outer loop
                        eps_scf                                         1.00E-06
                        max_scf                                               10
                        No outer loop optimization
                        step_size                                       5.00E-01

 PW_GRID| Information for grid number                                          1
 PW_GRID| Grid distributed over                                    25 processors
 PW_GRID| Real space group dimensions                                    25    1
 PW_GRID| the grid is blocked:                                                NO
 PW_GRID| Cutoff [a.u.]                                                    200.0
 PW_GRID| spherical cutoff:                                                   NO
 PW_GRID|   Bounds   1            -96      95                Points:         192
 PW_GRID|   Bounds   2            -96      95                Points:         192
 PW_GRID|   Bounds   3            -96      95                Points:         192
 PW_GRID| Volume element (a.u.^3)  0.3218E-02     Volume (a.u.^3)     22775.6292
 PW_GRID| Grid span                                                    FULLSPACE
 PW_GRID|   Distribution                         Average         Max         Min
 PW_GRID|   G-Vectors                           283115.5      283200      283008
 PW_GRID|   G-Rays                                1474.6        1475        1474
 PW_GRID|   Real Space Points                   283115.5      294912      258048

 PW_GRID| Information for grid number                                          2
 PW_GRID| Grid distributed over                                    25 processors
 PW_GRID| Real space group dimensions                                    25    1
 PW_GRID| the grid is blocked:                                                NO
 PW_GRID| Cutoff [a.u.]                                                     66.7
 PW_GRID| spherical cutoff:                                                   NO
 PW_GRID|   Bounds   1            -54      53                Points:         108
 PW_GRID|   Bounds   2            -54      53                Points:         108
 PW_GRID|   Bounds   3            -54      53                Points:         108
 PW_GRID| Volume element (a.u.^3)  0.1808E-01     Volume (a.u.^3)     22775.6292
 PW_GRID| Grid span                                                    FULLSPACE
 PW_GRID|   Distribution                         Average         Max         Min
 PW_GRID|   G-Vectors                            50388.5       50544       50220
 PW_GRID|   G-Rays                                 466.6         468         465
 PW_GRID|   Real Space Points                    50388.5       58320       46656

 PW_GRID| Information for grid number                                          3
 PW_GRID| Grid distributed over                                    25 processors
 PW_GRID| Real space group dimensions                                    25    1
 PW_GRID| the grid is blocked:                                                NO
 PW_GRID| Cutoff [a.u.]                                                     22.2
 PW_GRID| spherical cutoff:                                                   NO
 PW_GRID|   Bounds   1            -32      31                Points:          64
 PW_GRID|   Bounds   2            -32      31                Points:          64
 PW_GRID|   Bounds   3            -32      31                Points:          64
 PW_GRID| Volume element (a.u.^3)  0.8688E-01     Volume (a.u.^3)     22775.6292
 PW_GRID| Grid span                                                    FULLSPACE
 PW_GRID|   Distribution                         Average         Max         Min
 PW_GRID|   G-Vectors                            10485.8       10560       10432
 PW_GRID|   G-Rays                                 163.8         165         163
 PW_GRID|   Real Space Points                    10485.8       12288        8192

 PW_GRID| Information for grid number                                          4
 PW_GRID| Grid distributed over                                    25 processors
 PW_GRID| Real space group dimensions                                    25    1
 PW_GRID| the grid is blocked:                                                NO
 PW_GRID| Cutoff [a.u.]                                                      7.4
 PW_GRID| spherical cutoff:                                                   NO
 PW_GRID|   Bounds   1            -18      17                Points:          36
 PW_GRID|   Bounds   2            -18      17                Points:          36
 PW_GRID|   Bounds   3            -18      17                Points:          36
 PW_GRID| Volume element (a.u.^3)  0.4882         Volume (a.u.^3)     22775.6292
 PW_GRID| Grid span                                                    FULLSPACE
 PW_GRID|   Distribution                         Average         Max         Min
 PW_GRID|   G-Vectors                             1866.2        1908        1836
 PW_GRID|   G-Rays                                  51.8          53          51
 PW_GRID|   Real Space Points                     1866.2        2592        1296

 POISSON| Solver                                                        PERIODIC
 POISSON| Periodicity                                                        XYZ

 RS_GRID| Information for grid number                                          1
 RS_GRID|   Bounds   1            -96      95                Points:         192
 RS_GRID|   Bounds   2            -96      95                Points:         192
 RS_GRID|   Bounds   3            -96      95                Points:         192
 RS_GRID| Real space distribution over                                  5 groups
 RS_GRID| Real space distribution along direction                              2
 RS_GRID| Border size                                                         24
 RS_GRID| Real space distribution over                                  5 groups
 RS_GRID| Real space distribution along direction                              3
 RS_GRID| Border size                                                         24
 RS_GRID|   Distribution                         Average         Max         Min
 RS_GRID|   Planes                                  86.4          87          86
 RS_GRID|   Distribution                         Average         Max         Min
 RS_GRID|   Planes                                  86.4          87          86

 RS_GRID| Information for grid number                                          2
 RS_GRID|   Bounds   1            -54      53                Points:         108
 RS_GRID|   Bounds   2            -54      53                Points:         108
 RS_GRID|   Bounds   3            -54      53                Points:         108
 RS_GRID| Real space distribution over                                  5 groups
 RS_GRID| Real space distribution along direction                              2
 RS_GRID| Border size                                                         25
 RS_GRID| Real space distribution over                                  5 groups
 RS_GRID| Real space distribution along direction                              3
 RS_GRID| Border size                                                         25
 RS_GRID|   Distribution                         Average         Max         Min
 RS_GRID|   Planes                                  71.6          72          71
 RS_GRID|   Distribution                         Average         Max         Min
 RS_GRID|   Planes                                  71.6          72          71

 RS_GRID| Information for grid number                                          3
 RS_GRID|   Bounds   1            -32      31                Points:          64
 RS_GRID|   Bounds   2            -32      31                Points:          64
 RS_GRID|   Bounds   3            -32      31                Points:          64
 RS_GRID| Real space fully replicated
 RS_GRID| Group size                                                           1

 RS_GRID| Information for grid number                                          4
 RS_GRID|   Bounds   1            -18      17                Points:          36
 RS_GRID|   Bounds   2            -18      17                Points:          36
 RS_GRID|   Bounds   3            -18      17                Points:          36
 RS_GRID| Real space fully replicated
 RS_GRID| Group size                                                           1

 DISTRIBUTION OF THE PARTICLES (ROWS)
              Process row      Number of particles         Number of matrix rows
                        0                        1                            -1
                        1                        1                            -1
                        2                        2                            -1
                        3                        1                            -1
                        4                        1                            -1
                      Sum                        6                            -1

 DISTRIBUTION OF THE PARTICLES (COLUMNS)
              Process col      Number of particles      Number of matrix columns
                        0                        1                            -1
                        1                        1                            -1
                        2                        2                            -1
                        3                        1                            -1
                        4                        1                            -1
                      Sum                        6                            -1

 *******************************************************************************
 ***                     STARTING GEOMETRY OPTIMIZATION                      ***
 ***                                   BFGS                                  ***
 *******************************************************************************

 DISTRIBUTION OF THE NEIGHBOR LISTS
              Total number of particle pairs:                                 21
              Total number of matrix elements:                              2285
              Average number of particle pairs:                                1
              Maximum number of particle pairs:                                3
              Average number of matrix element:                               92
              Maximum number of matrix elements:                             169


 DISTRIBUTION OF THE OVERLAP MATRIX
              Number  of non-zero blocks:                                     21
              Percentage non-zero blocks:                                 100.00
              Average number of blocks per CPU:                                1
              Maximum number of blocks per CPU:                                3
              Average number of matrix elements per CPU:                      99
              Maximum number of matrix elements per CPU:                     179

 Number of electrons:                                                         24
 Number of occupied orbitals:                                                 12
 Number of molecular orbitals:                                                12

 Number of orbital functions:                                                 62
 Number of independent orbital functions:                                     62

 Extrapolation method: initial_guess

 Atomic guess: The first density matrix is obtained in terms of atomic orbitals
               and electronic configurations assigned to each atomic kind

 Guess for atomic kind: O

 Electronic structure
    Total number of core electrons                                          2.00
    Total number of valence electrons                                       6.00
    Total number of electrons                                               8.00
    Multiplicity                                                   not specified
    S   [  2.00] 2.00
    P      4.00
 

 *******************************************************************************
                  Iteration          Convergence                     Energy [au]
 *******************************************************************************
                          1         1.67054                     -14.836051221656
                          2         2.12470                     -14.897900780399
                          3        0.100150                     -15.654295189160
                          4        0.189307E-01                 -15.655828842238
                          5        0.464435E-02                 -15.655882433232
                          6        0.259395E-02                 -15.655884790195
                          7        0.516014E-04                 -15.655885857622
                          8        0.157374E-05                 -15.655885858066
                          9        0.783512E-06                 -15.655885858066

 Energy components [Hartree]           Total Energy ::          -15.655885858066
                                        Band Energy ::           -2.983129541149
                                     Kinetic Energy ::           11.754767937471
                                   Potential Energy ::          -27.410653795537
                                      Virial (-V/T) ::            2.331875366774
                                        Core Energy ::          -26.153524299614
                                          XC Energy ::           -3.157392735430
                                     Coulomb Energy ::           13.655031176977
                       Total Pseudopotential Energy ::          -37.943031004163
                       Local Pseudopotential Energy ::          -39.220423834999
                    Nonlocal Pseudopotential Energy ::            1.277392830837
                                        Confinement ::            0.347387670777

 Orbital energies  State     L     Occupation   Energy[a.u.]          Energy[eV]

                       1     0          2.000      -0.861523          -23.443221
 
                       1     1          4.000      -0.315021           -8.572160
 

 Total Electron Density at R=0:                                         0.000093

 Guess for atomic kind: H

 Electronic structure
    Total number of core electrons                                          0.00
    Total number of valence electrons                                       1.00
    Total number of electrons                                               1.00
    Multiplicity                                                   not specified
    S      1.00
 

 *******************************************************************************
                  Iteration          Convergence                     Energy [au]
 *******************************************************************************
                          1        0.250972E-02                  -0.375256815885
                          2        0.570752E-04                  -0.375258666164
                          3        0.832405E-09                  -0.375258667122

 Energy components [Hartree]           Total Energy ::           -0.375258667122
                                        Band Energy ::           -0.076317618391
                                     Kinetic Energy ::            0.771356566341
                                   Potential Energy ::           -1.146615233463
                                      Virial (-V/T) ::            1.486491829455
                                        Core Energy ::           -0.456090715790
                                          XC Energy ::           -0.314218627334
                                     Coulomb Energy ::            0.395050676003
                       Total Pseudopotential Energy ::           -1.238482237174
                       Local Pseudopotential Energy ::           -1.238482237174
                    Nonlocal Pseudopotential Energy ::            0.000000000000
                                        Confinement ::            0.110349550431

 Orbital energies  State     L     Occupation   Energy[a.u.]          Energy[eV]

                       1     0          1.000      -0.076318           -2.076708
 

 Total Electron Density at R=0:                                         0.425022

 Guess for atomic kind: C

 Electronic structure
    Total number of core electrons                                          2.00
    Total number of valence electrons                                       4.00
    Total number of electrons                                               6.00
    Multiplicity                                                   not specified
    S   [  2.00] 2.00
    P      2.00
 

 *******************************************************************************
                  Iteration          Convergence                     Energy [au]
 *******************************************************************************
                          1        0.457038                      -5.151105664215
                          2        0.157450                      -5.235617431356
                          3        0.130137E-02                  -5.246564342251
                          4        0.531061E-03                  -5.246565033610
                          5        0.605965E-04                  -5.246565167704
                          6        0.323545E-04                  -5.246565168968
                          7        0.365472E-07                  -5.246565169473

 Energy components [Hartree]           Total Energy ::           -5.246565169473
                                        Band Energy ::           -1.058732656762
                                     Kinetic Energy ::            3.518928154187
                                   Potential Energy ::           -8.765493323660
                                      Virial (-V/T) ::            2.490955467002
                                        Core Energy ::           -8.429377161979
                                          XC Energy ::           -1.450183339326
                                     Coulomb Energy ::            4.632995331832
                       Total Pseudopotential Energy ::          -11.978048785149
                       Local Pseudopotential Energy ::          -12.816738149676
                    Nonlocal Pseudopotential Energy ::            0.838689364526
                                        Confinement ::            0.297434689834

 Orbital energies  State     L     Occupation   Energy[a.u.]          Energy[eV]

                       1     0          2.000      -0.410911          -11.181458
 
                       1     1          2.000      -0.118455           -3.223332
 

 Total Electron Density at R=0:                                         0.001337
 Re-scaling the density matrix to get the right number of electrons
                  # Electrons              Trace(P)               Scaling factor
                           24                24.000                        1.000


 SCF WAVEFUNCTION OPTIMIZATION

  ----------------------------------- OT ---------------------------------------
  Minimizer      : DIIS                : direct inversion
                                         in the iterative subspace
                                         using   7 DIIS vectors
                                         safer DIIS on
  Preconditioner : FULL_ALL            : diagonalization, state selective
  Precond_solver : DEFAULT
  stepsize       :    0.15000000                  energy_gap     :    0.08000000
  eps_taylor     :   0.10000E-15                  max_taylor     :             4
  ----------------------------------- OT ---------------------------------------

  Step     Update method      Time    Convergence         Total energy    Change
  ------------------------------------------------------------------------------
     1 OT DIIS     0.15E+00    0.7     0.25238237       -52.6651350135 -5.27E+01
     2 OT DIIS     0.15E+00    0.8     0.29282088       -52.2686022482  3.97E-01
     3 OT DIIS     0.15E+00    0.8     0.16874688       -53.3534260376 -1.08E+00
     4 OT DIIS     0.15E+00    0.8     0.11946684       -54.3481155537 -9.95E-01
     5 OT DIIS     0.15E+00    0.8     0.08314484       -54.5410743825 -1.93E-01
     6 OT DIIS     0.15E+00    0.8     0.09407852       -54.6808301417 -1.40E-01
     7 OT DIIS     0.15E+00    0.8     0.05212689       -54.8727720768 -1.92E-01
     8 OT DIIS     0.15E+00    0.8     0.03486908       -54.9311214628 -5.83E-02
     9 OT DIIS     0.15E+00    0.8     0.02062705       -54.9665150278 -3.54E-02
    10 OT DIIS     0.15E+00    0.8     0.01719565       -54.9723769558 -5.86E-03
    11 OT DIIS     0.15E+00    0.8     0.00940033       -54.9778651877 -5.49E-03
    12 OT DIIS     0.15E+00    0.8     0.00565500       -54.9799296441 -2.06E-03
    13 OT DIIS     0.15E+00    0.8     0.00355616       -54.9810688204 -1.14E-03
    14 OT DIIS     0.15E+00    0.8     0.00214046       -54.9814081068 -3.39E-04
    15 OT DIIS     0.15E+00    0.8     0.00134455       -54.9815652782 -1.57E-04
    16 OT DIIS     0.15E+00    0.8     0.00071947       -54.9816143711 -4.91E-05
    17 OT DIIS     0.15E+00    0.8     0.00042218       -54.9816287705 -1.44E-05
    18 OT DIIS     0.15E+00    0.8     0.00024992       -54.9816343230 -5.55E-06
    19 OT DIIS     0.15E+00    0.8     0.00019335       -54.9816359349 -1.61E-06
    20 OT DIIS     0.15E+00    0.8     0.00014772       -54.9816366163 -6.81E-07
    21 OT DIIS     0.15E+00    0.8     0.00010801       -54.9816369906 -3.74E-07
    22 OT DIIS     0.15E+00    0.8     0.00005925       -54.9816371540 -1.63E-07
    23 OT DIIS     0.15E+00    0.8     0.00004050       -54.9816372388 -8.47E-08
    24 OT DIIS     0.15E+00    0.8     0.00002906       -54.9816372779 -3.91E-08
    25 OT DIIS     0.15E+00    0.8     0.00002088       -54.9816373017 -2.38E-08
    26 OT DIIS     0.15E+00    0.8     0.00001334       -54.9816373163 -1.47E-08
    27 OT DIIS     0.15E+00    0.8     0.00001102       -54.9816373226 -6.28E-09
    28 OT DIIS     0.15E+00    0.8     0.00000869       -54.9816373258 -3.18E-09
    29 OT DIIS     0.15E+00    0.8     0.00000785       -54.9816373276 -1.75E-09
    30 OT DIIS     0.15E+00    0.8     0.00000518       -54.9816373288 -1.24E-09
    31 OT DIIS     0.15E+00    0.8     0.00000370       -54.9816373295 -6.63E-10
    32 OT DIIS     0.15E+00    0.8     0.00000247       -54.9816373298 -2.98E-10
    33 OT DIIS     0.15E+00    0.8     0.00000161       -54.9816373299 -1.67E-10
    34 OT DIIS     0.15E+00    0.8     0.00000104       -54.9816373300 -8.45E-11
    35 OT DIIS     0.15E+00    0.8     0.00000091       -54.9816373300 -3.92E-11

  *** SCF run converged in    35 steps ***


  Electronic density on regular grids:        -23.9999999997        0.0000000003
  Core density on regular grids:               23.9999999991       -0.0000000009
  Total charge density on r-space grids:       -0.0000000006
  Total charge density g-space grids:          -0.0000000006

  Overlap energy of the core charge distribution:               0.00000133180427
  Self energy of the core charge distribution:               -140.73457708150062
  Core Hamiltonian energy:                                     40.36203346157696
  Hartree energy:                                              58.20928432390208
  Exchange-correlation energy:                                -12.81620840179279
  Dispersion energy:                                           -0.00217096403107

  Total energy:                                               -54.98163733004117

  outer SCF iter =    1 RMS gradient =   0.91E-06 energy =        -54.9816373300
  outer SCF loop converged in   1 iterations or   35 steps


 ENERGY| Total FORCE_EVAL ( QS ) energy (a.u.):              -54.981637330061126


 --------  Informations at step =     0 ------------
  Optimization Method        =                 BFGS
  Total Energy               =       -54.9816373301
  Used time                  =               29.398
 ---------------------------------------------------

 --------------------------
 OPTIMIZATION STEP:      1
 --------------------------

 DISTRIBUTION OF THE NEIGHBOR LISTS
              Total number of particle pairs:                                 21
              Total number of matrix elements:                              2285
              Average number of particle pairs:                                1
              Maximum number of particle pairs:                                3
              Average number of matrix element:                               92
              Maximum number of matrix elements:                             169


 DISTRIBUTION OF THE OVERLAP MATRIX
              Number  of non-zero blocks:                                     21
              Percentage non-zero blocks:                                 100.00
              Average number of blocks per CPU:                                1
              Maximum number of blocks per CPU:                                3
              Average number of matrix elements per CPU:                      99
              Maximum number of matrix elements per CPU:                     179

 Number of electrons:                                                         24
 Number of occupied orbitals:                                                 12
 Number of molecular orbitals:                                                12

 Number of orbital functions:                                                 62
 Number of independent orbital functions:                                     62

 Parameters for the always stable predictor-corrector (ASPC) method:

  ASPC order: 0

  B(1) =   1.000000

 Extrapolation method: ASPC


 SCF WAVEFUNCTION OPTIMIZATION

  ----------------------------------- OT ---------------------------------------
  Minimizer      : DIIS                : direct inversion
                                         in the iterative subspace
                                         using   7 DIIS vectors
                                         safer DIIS on
  Preconditioner : FULL_ALL            : diagonalization, state selective
  Precond_solver : DEFAULT
  stepsize       :    0.15000000                  energy_gap     :    0.08000000
  eps_taylor     :   0.10000E-15                  max_taylor     :             4
  ----------------------------------- OT ---------------------------------------

  Step     Update method      Time    Convergence         Total energy    Change
  ------------------------------------------------------------------------------
     1 OT DIIS     0.15E+00    0.7     0.00325181       -54.9829546888 -5.50E+01
     2 OT DIIS     0.15E+00    0.8     0.00141549       -54.9836381929 -6.84E-04
     3 OT DIIS     0.15E+00    0.8     0.00089282       -54.9837315192 -9.33E-05
     4 OT DIIS     0.15E+00    0.8     0.00018904       -54.9837649360 -3.34E-05
     5 OT DIIS     0.15E+00    0.8     0.00009813       -54.9837661461 -1.21E-06
     6 OT DIIS     0.15E+00    0.8     0.00003277       -54.9837663712 -2.25E-07
     7 OT DIIS     0.15E+00    0.8     0.00000925       -54.9837663948 -2.36E-08
     8 OT DIIS     0.15E+00    0.8     0.00000044       -54.9837663985 -3.69E-09

  *** SCF run converged in     8 steps ***


  Electronic density on regular grids:        -23.9999999996        0.0000000004
  Core density on regular grids:               23.9999999991       -0.0000000009
  Total charge density on r-space grids:       -0.0000000005
  Total charge density g-space grids:          -0.0000000005

  Overlap energy of the core charge distribution:               0.00000209776569
  Self energy of the core charge distribution:               -140.73457708150062
  Core Hamiltonian energy:                                     40.53506328547957
  Hartree energy:                                              58.07891441219118
  Exchange-correlation energy:                                -12.86098637112699
  Dispersion energy:                                           -0.00218274135032

  Total energy:                                               -54.98376639854150

  outer SCF iter =    1 RMS gradient =   0.44E-06 energy =        -54.9837663985
  outer SCF loop converged in   1 iterations or    8 steps


 ENERGY| Total FORCE_EVAL ( QS ) energy (a.u.):              -54.983766398557130


 --------  Informations at step =     1 ------------
  Optimization Method        =                 BFGS
  Total Energy               =       -54.9837663986
  Real energy change         =        -0.0021290685
  Predicted change in energy =        -0.0018590542
  Scaling factor             =         0.0000000000
  Step size                  =         0.0355275472
  Trust radius               =         0.4724315332
  Decrease in energy         =                  YES
  Used time                  =                7.533

  Convergence check :
  Max. step size             =         0.0355275472
  Conv. limit for step size  =         0.0018897261
  Convergence in step size   =                   NO
  RMS step size              =         0.0178999243
  Conv. limit for RMS step   =         0.0009448631
  Convergence in RMS step    =                   NO
  Max. gradient              =         0.0054734930
  Conv. limit for gradients  =         0.0004500000
  Conv. for gradients        =                   NO
  RMS gradient               =         0.0023412931
  Conv. limit for RMS grad.  =         0.0003000000
  Conv. for gradients        =                   NO
 ---------------------------------------------------

 --------------------------
 OPTIMIZATION STEP:      2
 --------------------------

 DISTRIBUTION OF THE NEIGHBOR LISTS
              Total number of particle pairs:                                 21
              Total number of matrix elements:                              2285
              Average number of particle pairs:                                1
              Maximum number of particle pairs:                                3
              Average number of matrix element:                               92
              Maximum number of matrix elements:                             169


 DISTRIBUTION OF THE OVERLAP MATRIX
              Number  of non-zero blocks:                                     21
              Percentage non-zero blocks:                                 100.00
              Average number of blocks per CPU:                                1
              Maximum number of blocks per CPU:                                3
              Average number of matrix elements per CPU:                      99
              Maximum number of matrix elements per CPU:                     179

 Number of electrons:                                                         24
 Number of occupied orbitals:                                                 12
 Number of molecular orbitals:                                                12

 Number of orbital functions:                                                 62
 Number of independent orbital functions:                                     62

 Parameters for the always stable predictor-corrector (ASPC) method:

  ASPC order: 0

  B(1) =   2.000000
  B(2) =  -1.000000

 Extrapolation method: ASPC


 SCF WAVEFUNCTION OPTIMIZATION

  ----------------------------------- OT ---------------------------------------
  Minimizer      : DIIS                : direct inversion
                                         in the iterative subspace
                                         using   7 DIIS vectors
                                         safer DIIS on
  Preconditioner : FULL_ALL            : diagonalization, state selective
  Precond_solver : DEFAULT
  stepsize       :    0.15000000                  energy_gap     :    0.08000000
  eps_taylor     :   0.10000E-15                  max_taylor     :             4
  ----------------------------------- OT ---------------------------------------

  Step     Update method      Time    Convergence         Total energy    Change
  ------------------------------------------------------------------------------
     1 OT DIIS     0.15E+00    0.7     0.00339873       -54.9828763745 -5.50E+01
     2 OT DIIS     0.15E+00    0.8     0.00140284       -54.9836882788 -8.12E-04
     3 OT DIIS     0.15E+00    0.8     0.00093206       -54.9838033691 -1.15E-04
     4 OT DIIS     0.15E+00    0.8     0.00021700       -54.9838356109 -3.22E-05
     5 OT DIIS     0.15E+00    0.8     0.00014583       -54.9838365891 -9.78E-07
     6 OT DIIS     0.15E+00    0.8     0.00002509       -54.9838370359 -4.47E-07
     7 OT DIIS     0.15E+00    0.8     0.00000722       -54.9838370536 -1.77E-08
     8 OT DIIS     0.15E+00    0.8     0.00000038       -54.9838370563 -2.71E-09

  *** SCF run converged in     8 steps ***


  Electronic density on regular grids:        -23.9999999995        0.0000000005
  Core density on regular grids:               23.9999999991       -0.0000000009
  Total charge density on r-space grids:       -0.0000000004
  Total charge density g-space grids:          -0.0000000004

  Overlap energy of the core charge distribution:               0.00000223746967
  Self energy of the core charge distribution:               -140.73457708150062
  Core Hamiltonian energy:                                     40.56820075472531
  Hartree energy:                                              58.05440264008789
  Exchange-correlation energy:                                -12.86968459365594
  Dispersion energy:                                           -0.00218101343658

  Total energy:                                               -54.98383705631027

  outer SCF iter =    1 RMS gradient =   0.38E-06 energy =        -54.9838370563
  outer SCF loop converged in   1 iterations or    8 steps


 ENERGY| Total FORCE_EVAL ( QS ) energy (a.u.):              -54.983837056321271


 --------  Informations at step =     2 ------------
  Optimization Method        =                 BFGS
  Total Energy               =       -54.9838370563
  Real energy change         =        -0.0000706578
  Predicted change in energy =        -0.0001074012
  Scaling factor             =         0.0000000000
  Step size                  =         0.0162491507
  Trust radius               =         0.4724315332
  Decrease in energy         =                  YES
  Used time                  =                7.508

  Convergence check :
  Max. step size             =         0.0162491507
  Conv. limit for step size  =         0.0018897261
  Convergence in step size   =                   NO
  RMS step size              =         0.0086364622
  Conv. limit for RMS step   =         0.0009448631
  Convergence in RMS step    =                   NO
  Max. gradient              =         0.0028951313
  Conv. limit for gradients  =         0.0004500000
  Conv. for gradients        =                   NO
  RMS gradient               =         0.0012602352
  Conv. limit for RMS grad.  =         0.0003000000
  Conv. for gradients        =                   NO
 ---------------------------------------------------

 --------------------------
 OPTIMIZATION STEP:      3
 --------------------------

 DISTRIBUTION OF THE NEIGHBOR LISTS
              Total number of particle pairs:                                 21
              Total number of matrix elements:                              2285
              Average number of particle pairs:                                1
              Maximum number of particle pairs:                                3
              Average number of matrix element:                               92
              Maximum number of matrix elements:                             169


 DISTRIBUTION OF THE OVERLAP MATRIX
              Number  of non-zero blocks:                                     21
              Percentage non-zero blocks:                                 100.00
              Average number of blocks per CPU:                                1
              Maximum number of blocks per CPU:                                3
              Average number of matrix elements per CPU:                      99
              Maximum number of matrix elements per CPU:                     179

 Number of electrons:                                                         24
 Number of occupied orbitals:                                                 12
 Number of molecular orbitals:                                                12

 Number of orbital functions:                                                 62
 Number of independent orbital functions:                                     62

 Parameters for the always stable predictor-corrector (ASPC) method:

  ASPC order: 1

  B(1) =   2.500000
  B(2) =  -2.000000
  B(3) =   0.500000

 Extrapolation method: ASPC


 SCF WAVEFUNCTION OPTIMIZATION

  ----------------------------------- OT ---------------------------------------
  Minimizer      : DIIS                : direct inversion
                                         in the iterative subspace
                                         using   7 DIIS vectors
                                         safer DIIS on
  Preconditioner : FULL_ALL            : diagonalization, state selective
  Precond_solver : DEFAULT
  stepsize       :    0.15000000                  energy_gap     :    0.08000000
  eps_taylor     :   0.10000E-15                  max_taylor     :             4
  ----------------------------------- OT ---------------------------------------

  Step     Update method      Time    Convergence         Total energy    Change
  ------------------------------------------------------------------------------
     1 OT DIIS     0.15E+00    0.7     0.00349341       -54.9828358066 -5.50E+01
     2 OT DIIS     0.15E+00    0.8     0.00139379       -54.9837746899 -9.39E-04
     3 OT DIIS     0.15E+00    0.8     0.00057158       -54.9839402472 -1.66E-04
     4 OT DIIS     0.15E+00    0.8     0.00010763       -54.9839496192 -9.37E-06
     5 OT DIIS     0.15E+00    0.8     0.00007687       -54.9839497892 -1.70E-07
     6 OT DIIS     0.15E+00    0.8     0.00001066       -54.9839499149 -1.26E-07
     7 OT DIIS     0.15E+00    0.8     0.00000467       -54.9839499188 -3.92E-09
     8 OT DIIS     0.15E+00    0.8     0.00000041       -54.9839499197 -8.55E-10

  *** SCF run converged in     8 steps ***


  Electronic density on regular grids:        -23.9999999994        0.0000000006
  Core density on regular grids:               23.9999999991       -0.0000000009
  Total charge density on r-space grids:       -0.0000000002
  Total charge density g-space grids:          -0.0000000002

  Overlap energy of the core charge distribution:               0.00000227503079
  Self energy of the core charge distribution:               -140.73457708150062
  Core Hamiltonian energy:                                     40.57962823861692
  Hartree energy:                                              58.04599887166910
  Exchange-correlation energy:                                -12.87282305076527
  Dispersion energy:                                           -0.00217917271032

  Total energy:                                               -54.98394991965939

  outer SCF iter =    1 RMS gradient =   0.41E-06 energy =        -54.9839499197
  outer SCF loop converged in   1 iterations or    8 steps


 ENERGY| Total FORCE_EVAL ( QS ) energy (a.u.):              -54.983949919672092


 --------  Informations at step =     3 ------------
  Optimization Method        =                 BFGS
  Total Energy               =       -54.9839499197
  Real energy change         =        -0.0001128634
  Predicted change in energy =        -0.0000699009
  Scaling factor             =         0.0000000000
  Step size                  =         0.0138919172
  Trust radius               =         0.4724315332
  Decrease in energy         =                  YES
  Used time                  =                7.521

  Convergence check :
  Max. step size             =         0.0138919172
  Conv. limit for step size  =         0.0018897261
  Convergence in step size   =                   NO
  RMS step size              =         0.0082728713
  Conv. limit for RMS step   =         0.0009448631
  Convergence in RMS step    =                   NO
  Max. gradient              =         0.0030101724
  Conv. limit for gradients  =         0.0004500000
  Conv. for gradients        =                   NO
  RMS gradient               =         0.0015596276
  Conv. limit for RMS grad.  =         0.0003000000
  Conv. for gradients        =                   NO
 ---------------------------------------------------

 --------------------------
 OPTIMIZATION STEP:      4
 --------------------------

 DISTRIBUTION OF THE NEIGHBOR LISTS
              Total number of particle pairs:                                 21
              Total number of matrix elements:                              2285
              Average number of particle pairs:                                1
              Maximum number of particle pairs:                                3
              Average number of matrix element:                               92
              Maximum number of matrix elements:                             169


 DISTRIBUTION OF THE OVERLAP MATRIX
              Number  of non-zero blocks:                                     21
              Percentage non-zero blocks:                                 100.00
              Average number of blocks per CPU:                                1
              Maximum number of blocks per CPU:                                3
              Average number of matrix elements per CPU:                      99
              Maximum number of matrix elements per CPU:                     179

 Number of electrons:                                                         24
 Number of occupied orbitals:                                                 12
 Number of molecular orbitals:                                                12

 Number of orbital functions:                                                 62
 Number of independent orbital functions:                                     62

 Parameters for the always stable predictor-corrector (ASPC) method:

  ASPC order: 2

  B(1) =   2.800000
  B(2) =  -2.800000
  B(3) =   1.200000
  B(4) =  -0.200000

 Extrapolation method: ASPC


 SCF WAVEFUNCTION OPTIMIZATION

  ----------------------------------- OT ---------------------------------------
  Minimizer      : DIIS                : direct inversion
                                         in the iterative subspace
                                         using   7 DIIS vectors
                                         safer DIIS on
  Preconditioner : FULL_ALL            : diagonalization, state selective
  Precond_solver : DEFAULT
  stepsize       :    0.15000000                  energy_gap     :    0.08000000
  eps_taylor     :   0.10000E-15                  max_taylor     :             4
  ----------------------------------- OT ---------------------------------------

  Step     Update method      Time    Convergence         Total energy    Change
  ------------------------------------------------------------------------------
     1 OT DIIS     0.15E+00    0.7     0.00481778       -54.9813783634 -5.50E+01
     2 OT DIIS     0.15E+00    0.8     0.00191667       -54.9831823583 -1.80E-03
     3 OT DIIS     0.15E+00    0.8     0.00041950       -54.9835175671 -3.35E-04
     4 OT DIIS     0.15E+00    0.8     0.00017469       -54.9835213776 -3.81E-06
     5 OT DIIS     0.15E+00    0.8     0.00005444       -54.9835219538 -5.76E-07
     6 OT DIIS     0.15E+00    0.8     0.00000483       -54.9835220332 -7.95E-08
     7 OT DIIS     0.15E+00    0.8     0.00000297       -54.9835220346 -1.35E-09
     8 OT DIIS     0.15E+00    0.8     0.00000058       -54.9835220349 -2.85E-10

  *** SCF run converged in     8 steps ***


  Electronic density on regular grids:        -23.9999999998        0.0000000002
  Core density on regular grids:               23.9999999991       -0.0000000009
  Total charge density on r-space grids:       -0.0000000007
  Total charge density g-space grids:          -0.0000000007

  Overlap energy of the core charge distribution:               0.00000235433815
  Self energy of the core charge distribution:               -140.73457708150062
  Core Hamiltonian energy:                                     40.60756535523715
[...]


 --------  Informations at step =    73 ------------
  Optimization Method        =                 BFGS
  Total Energy               =       -54.9852982327
  Real energy change         =        -0.0000000026
  Predicted change in energy =        -0.0000000020
  Scaling factor             =         0.0000000000
  Step size                  =         0.0005275388
  Trust radius               =         0.4724315332
  Decrease in energy         =                  YES
  Used time                  =                5.923

  Convergence check :
  Max. step size             =         0.0005275388
  Conv. limit for step size  =         0.0018897261
  Convergence in step size   =                  YES
  RMS step size              =         0.0001473908
  Conv. limit for RMS step   =         0.0009448631
  Convergence in RMS step    =                  YES
  Max. gradient              =         0.0000160804
  Conv. limit for gradients  =         0.0004500000
  Conv. in gradients         =                  YES
  RMS gradient               =         0.0000078633
  Conv. limit for RMS grad.  =         0.0003000000
  Conv. in RMS gradients     =                  YES
 ---------------------------------------------------

 *******************************************************************************
 ***                    GEOMETRY OPTIMIZATION COMPLETED                      ***
 *******************************************************************************

                    Reevaluating energy at the minimum

 DISTRIBUTION OF THE NEIGHBOR LISTS
              Total number of particle pairs:                                 22
              Total number of matrix elements:                              2350
              Average number of particle pairs:                                1
              Maximum number of particle pairs:                                3
              Average number of matrix element:                               94
              Maximum number of matrix elements:                             169


 DISTRIBUTION OF THE OVERLAP MATRIX
              Number  of non-zero blocks:                                     21
              Percentage non-zero blocks:                                 100.00
              Average number of blocks per CPU:                                1
              Maximum number of blocks per CPU:                                3
              Average number of matrix elements per CPU:                      99
              Maximum number of matrix elements per CPU:                     179

 Number of electrons:                                                         24
 Number of occupied orbitals:                                                 12
 Number of molecular orbitals:                                                12

 Number of orbital functions:                                                 62
 Number of independent orbital functions:                                     62

 Parameters for the always stable predictor-corrector (ASPC) method:

  ASPC order: 3

  B(1) =   3.000000
  B(2) =  -3.428571
  B(3) =   1.928571
  B(4) =  -0.571429
  B(5) =   0.071429

 Extrapolation method: ASPC


 SCF WAVEFUNCTION OPTIMIZATION

  ----------------------------------- OT ---------------------------------------
  Minimizer      : DIIS                : direct inversion
                                         in the iterative subspace
                                         using   7 DIIS vectors
                                         safer DIIS on
  Preconditioner : FULL_ALL            : diagonalization, state selective
  Precond_solver : DEFAULT
  stepsize       :    0.15000000                  energy_gap     :    0.08000000
  eps_taylor     :   0.10000E-15                  max_taylor     :             4
  ----------------------------------- OT ---------------------------------------

  Step     Update method      Time    Convergence         Total energy    Change
  ------------------------------------------------------------------------------
     1 OT DIIS     0.15E+00    0.7     0.00019577       -54.9852946925 -5.50E+01
     2 OT DIIS     0.15E+00    0.8     0.00007787       -54.9852976736 -2.98E-06
     3 OT DIIS     0.15E+00    0.8     0.00001371       -54.9852982268 -5.53E-07
     4 OT DIIS     0.15E+00    0.8     0.00000266       -54.9852982325 -5.66E-09
     5 OT DIIS     0.15E+00    0.8     0.00000198       -54.9852982326 -1.23E-10
     6 OT DIIS     0.15E+00    0.8     0.00000039       -54.9852982327 -9.87E-11

  *** SCF run converged in     6 steps ***


  Electronic density on regular grids:        -23.9999999990        0.0000000010
  Core density on regular grids:               23.9999999991       -0.0000000009
  Total charge density on r-space grids:        0.0000000001
  Total charge density g-space grids:           0.0000000001

  Overlap energy of the core charge distribution:               0.00000215551964
  Self energy of the core charge distribution:               -140.73457708150062
  Core Hamiltonian energy:                                     40.55745859759264
  Hartree energy:                                              58.06076804588039
  Exchange-correlation energy:                                -12.86704739818651
  Dispersion energy:                                           -0.00190255198735

  Total energy:                                               -54.98529823268181

  outer SCF iter =    1 RMS gradient =   0.39E-06 energy =        -54.9852982327
  outer SCF loop converged in   1 iterations or    6 steps


 ENERGY| Total FORCE_EVAL ( QS ) energy (a.u.):              -54.985298232681806


 -------------------------------------------------------------------------------
 -                                                                             -
 -                                DBCSR STATISTICS                             -
 -                                                                             -
 -------------------------------------------------------------------------------
 COUNTER                                    TOTAL       BLAS       SMM       ACC
 flops     5 x     5 x    12              1364400     100.0%      0.0%      0.0%
 flops    10 x    12 x    10              3283200     100.0%      0.0%      0.0%
 flops    13 x     5 x    12              4729920     100.0%      0.0%      0.0%
 flops     5 x    13 x    12              4729920     100.0%      0.0%      0.0%
 flops     5 x    12 x     5              4872000     100.0%      0.0%      0.0%
 flops    12 x    12 x    10              7231680     100.0%      0.0%      0.0%
 flops    10 x    12 x    12              8985600     100.0%      0.0%      0.0%
 flops    13 x    12 x    10             17072640     100.0%      0.0%      0.0%
 flops    10 x    12 x    13             17072640     100.0%      0.0%      0.0%
 flops    12 x    12 x    12             19305216     100.0%      0.0%      0.0%
 flops    13 x    12 x     5             25334400     100.0%      0.0%      0.0%
 flops     5 x    12 x    13             25334400     100.0%      0.0%      0.0%
 flops    13 x    13 x    12             30744480     100.0%      0.0%      0.0%
 flops    12 x    12 x    13             37604736     100.0%      0.0%      0.0%
 flops    13 x    12 x    12             46725120     100.0%      0.0%      0.0%
 flops    13 x    12 x    13            220516608     100.0%      0.0%      0.0%
 flops inhomo. stacks                           0       0.0%      0.0%      0.0%
 flops total                       474.906960E+06     100.0%      0.0%      0.0%
 flops max/rank                    144.628272E+06     100.0%      0.0%      0.0%
 matmuls inhomo. stacks                         0       0.0%      0.0%      0.0%
 matmuls total                             156939     100.0%      0.0%      0.0%
 number of processed stacks                133093     100.0%      0.0%      0.0%
 average stack size                                     1.2       0.0       0.0
 marketing flops                   504.535904E+06
 -------------------------------------------------------------------------------
 # multiplications                          15448
 max memory usage/rank             262.017024E+06
 # max total images/rank                        1
 # max 3D layers                                1
 # MPI messages exchanged                 3089600
 MPI messages size (bytes):
  total size                       794.675968E+06
  min size                           0.000000E+00
  max size                           1.352000E+03
  average size                     257.209991E+00
 MPI breakdown and total messages size (bytes):
             size <=      128             2431512                        0
       128 < size <=     8192              658088                794675968
      8192 < size <=    32768                   0                        0
     32768 < size <=   131072                   0                        0
    131072 < size <=  4194304                   0                        0
   4194304 < size <= 16777216                   0                        0
  16777216 < size                               0                        0
 -------------------------------------------------------------------------------
 
 MEMORY| Estimated peak process memory [MiB]                                 250

 -------------------------------------------------------------------------------
 ----                             MULTIGRID INFO                            ----
 -------------------------------------------------------------------------------
 count for grid        1:         266861          cutoff [a.u.]          200.00
 count for grid        2:         114874          cutoff [a.u.]           66.67
 count for grid        3:          62625          cutoff [a.u.]           22.22
 count for grid        4:          17174          cutoff [a.u.]            7.41
 total gridlevel count  :         461534

 -------------------------------------------------------------------------------
 -                                                                             -
 -                         MESSAGE PASSING PERFORMANCE                         -
 -                                                                             -
 -------------------------------------------------------------------------------

 ROUTINE             CALLS      AVE VOLUME [Bytes]
 MP_Group             1402
 MP_Bcast             4541                 122888.
 MP_Allreduce        52422                     33.
 MP_Sync               362
 MP_Alltoall         78255                1864329.
 MP_SendRecv          7104                     60.
 MP_ISendRecv        65616                  59520.
 MP_Wait           1031162
 MP_comm_split         358
 MP_ISend           397735                  59407.
 MP_IRecv           397735                  59351.
 MP_Recv               520                    976.
 MP_Memory          599508
 -------------------------------------------------------------------------------


 -------------------------------------------------------------------------------
 -                                                                             -
 -                           R E F E R E N C E S                               -
 -                                                                             -
 -------------------------------------------------------------------------------
 
 CP2K version 5.1, the CP2K developers group (2017).
 CP2K is freely available from https://www.cp2k.org/ .

 Schuett, Ole; Messmer, Peter; Hutter, Juerg; VandeVondele, Joost. 
 Electronic Structure Calculations on Graphics Processing Units, John Wiley & Sons, Ltd, 173-190 (2016). 
 GPU-Accelerated Sparse Matrix-Matrix Multiplication for Linear Scaling Density Functional Theory.
 http://dx.doi.org/10.1002/9781118670712.ch8


 Borstnik, U; VandeVondele, J; Weber, V; Hutter, J. 
 PARALLEL COMPUTING, 40 (5-6), 47-58 (2014). 
 Sparse matrix multiplication: The distributed block-compressed sparse
 row library.
 http://dx.doi.org/10.1016/j.parco.2014.03.012


 Hutter, J; Iannuzzi, M; Schiffmann, F; VandeVondele, J. 
 WILEY INTERDISCIPLINARY REVIEWS-COMPUTATIONAL MOLECULAR SCIENCE, 4 (1), 15-25 (2014). 
 CP2K: atomistic simulations of condensed matter systems.
 http://dx.doi.org/10.1002/wcms.1159


 Grimme, S; Ehrlich, S; Goerigk, L. 
 JOURNAL OF COMPUTATIONAL CHEMISTRY, 32, 1456 (2011). 
 Effect of the damping function in dispersion corrected density functional theory.
 http://dx.doi.org/10.1002/jcc.21759


 Grimme, S; Antony, J; Ehrlich, S; Krieg, H. 
 JOURNAL OF CHEMICAL PHYSICS, 132 (15), 154104 (2010). 
 A consistent and accurate ab initio parametrization of density
 functional dispersion correction (DFT-D) for the 94 elements H-Pu.
 http://dx.doi.org/10.1063/1.3382344


 VandeVondele, J; Hutter, J. 
 JOURNAL OF CHEMICAL PHYSICS, 127 (11), 114105 (2007). 
 Gaussian basis sets for accurate calculations on molecular systems in
 gas and condensed phases.
 http://dx.doi.org/10.1063/1.2770708


 Krack, M. 
 THEORETICAL CHEMISTRY ACCOUNTS, 114 (1-3), 145-152 (2005). 
 Pseudopotentials for H to Kr optimized for gradient-corrected
 exchange-correlation functionals.
 http://dx.doi.org/10.1007/s00214-005-0655-y


 VandeVondele, J; Krack, M; Mohamed, F; Parrinello, M; Chassaing, T;
 Hutter, J. COMPUTER PHYSICS COMMUNICATIONS, 167 (2), 103-128 (2005). 
 QUICKSTEP: Fast and accurate density functional calculations using a
 mixed Gaussian and plane waves approach.
 http://dx.doi.org/10.1016/j.cpc.2004.12.014


 Frigo, M; Johnson, SG. 
 PROCEEDINGS OF THE IEEE, 93 (2), 216-231 (2005). 
 The design and implementation of FFTW3.
 http://dx.doi.org/10.1109/JPROC.2004.840301


 Kolafa, J. 
 JOURNAL OF COMPUTATIONAL CHEMISTRY, 25 (3), 335-342 (2004). 
 Time-reversible always stable predictor-corrector method for molecular dynamics of polarizable molecules.
 http://dx.doi.org/10.1002/jcc.10385


 VandeVondele, J; Hutter, J. 
 JOURNAL OF CHEMICAL PHYSICS, 118 (10), 4365-4369 (2003). 
 An efficient orbital transformation method for electronic structure
 calculations.
 http://dx.doi.org/10.1063/1.1543154


 Hartwigsen, C; Goedecker, S; Hutter, J. 
 PHYSICAL REVIEW B, 58 (7), 3641-3662 (1998). 
 Relativistic separable dual-space Gaussian pseudopotentials from H to Rn.
 http://dx.doi.org/10.1103/PhysRevB.58.3641


 Lippert, G; Hutter, J; Parrinello, M. 
 MOLECULAR PHYSICS, 92 (3), 477-487 (1997). 
 A hybrid Gaussian and plane wave density functional scheme.
 http://dx.doi.org/10.1080/002689797170220


 Perdew, JP; Burke, K; Ernzerhof, M. 
 PHYSICAL REVIEW LETTERS, 77 (18), 3865-3868 (1996). 
 Generalized gradient approximation made simple.
 http://dx.doi.org/10.1103/PhysRevLett.77.3865


 Goedecker, S; Teter, M; Hutter, J. 
 PHYSICAL REVIEW B, 54 (3), 1703-1710 (1996). 
 Separable dual-space Gaussian pseudopotentials.
 http://dx.doi.org/10.1103/PhysRevB.54.1703


 -------------------------------------------------------------------------------
 -                                                                             -
 -                                T I M I N G                                  -
 -                                                                             -
 -------------------------------------------------------------------------------
 SUBROUTINE                       CALLS  ASD         SELF TIME        TOTAL TIME
                                MAXIMUM       AVERAGE  MAXIMUM  AVERAGE  MAXIMUM
 CP2K                                 1  1.0    0.058    0.079  571.868  571.873
 cp_geo_opt                           1  2.0    0.002    0.005  571.198  571.201
 geoopt_bfgs                          1  3.0    0.023    0.190  571.195  571.196
 cp_eval_at                          75  4.0    0.017    0.027  570.522  570.524
 qs_forces                           74  5.0    0.014    0.023  565.348  565.353
 qs_energies                         75  6.0    0.009    0.014  516.257  516.261
 scf_env_do_scf                      75  7.0    0.005    0.010  495.368  495.371
 scf_env_do_scf_inner_loop          609  8.0    0.029    0.154  446.717  446.744
 rebuild_ks_matrix                  683  9.7    0.002    0.002  434.534  434.550
 qs_ks_build_kohn_sham_matrix       683 10.7    0.089    0.101  434.532  434.548
 pw_transfer                      13057 13.4    0.934    1.124  375.884  393.364
 fft_wrap_pw1pw2                  11691 14.5    0.105    0.124  371.212  388.923
 qs_ks_update_qs_env                684  9.0    0.006    0.008  380.467  380.483
 fft_wrap_pw1pw2_200               7590 15.5   23.896   27.646  361.975  379.804
 fft3d_ps                         11691 16.5  204.538  232.175  298.831  321.550
 qs_vxc_create                      683 11.7    0.013    0.018  293.385  297.377
 xc_vxc_pw_create                   683 12.7   11.702   13.019  293.372  297.363
 xc_rho_set_and_dset_create         683 13.7    1.130    1.279  130.974  144.180
 mp_alltoall_z22v                 11691 18.5   64.466  127.936   64.466  127.936
 qs_rho_update_rho                  684  9.1    0.004    0.005  115.857  115.870
 calculate_rho_elec                 684 10.1    1.769    9.581  115.852  115.866
 density_rs2pw                      684 11.1    0.038    0.047  106.465  108.976
 yz_to_x                           5543 17.0    7.672    9.854   48.573   92.062
 sum_up_and_integrate               683 11.7    2.083    2.266   84.074   85.915
 integrate_v_rspace                 683 12.7    0.728    6.167   81.990   83.939
 rs_pw_transfer                    5617 13.3    0.056    0.074   82.025   83.045
 potential_pw2rs                    683 13.7    0.093    0.102   77.340   77.681
 x_to_yz                           6148 17.9   21.947   24.515   45.512   62.225
 qs_ks_update_qs_env_forces          74  6.0    0.000    0.000   54.128   54.129
 init_scf_loop                       75  8.0    0.004    0.006   48.575   48.581
 xc_functional_eval                 683 14.7    0.006    0.010   20.421   33.955
 pbe_lda_eval                       683 15.7   20.415   33.949   20.415   33.949
 rs_pw_transfer_PW2RS_200           757 15.2   21.396   23.285   30.923   32.771
 rs_pw_transfer_RS2PW_200           759 12.9   19.252   21.867   28.465   30.323
 pw_scatter_p                      6148 16.9   26.517   29.880   26.517   29.880
 pw_gather_p                       5543 16.0   21.123   22.290   21.123   22.290
 mp_waitany                       89075 15.2   18.289   22.214   18.289   22.214
 pw_derive                         4320 14.0   17.050   20.585   17.050   20.585
 pw_poisson_solve                   683 11.7    9.971   10.249   16.091   16.092
 dbcsr_multiply_generic           15448 14.0    0.449    0.467   11.335   15.871
 init_scf_run                        75  7.0    0.003    0.037   13.575   13.576
 scf_env_initial_rho_setup           75  8.0    0.004    0.012   13.572   13.574
 wfi_extrapolate                     75  9.0    0.006    0.014   13.257   13.263
 pw_copy                           7735 14.1   11.527   12.972   11.527   12.972
 mp_sum_d                         13751 13.6    5.399   12.832    5.399   12.832
 rs_pw_transfer_PW2RS_70            683 15.7    5.527    6.527    9.653   11.649
 -------------------------------------------------------------------------------

 The number of warnings for this run is : 0
 
 -------------------------------------------------------------------------------
  **** **** ******  **  PROGRAM ENDED AT                 2018-10-04 10:56:24.881
 ***** ** ***  *** **   PROGRAM RAN ON                                      f210
 **    ****   ******    PROGRAM RAN BY                                    ongari
 ***** **    ** ** **   PROGRAM PROCESS ID                                  2220
  **** **  *******  **  PROGRAM STOPPED IN /scratch/ongari/proj45_cp2krestart/1_
                                           geoopt_AB
