       6
 i =        1, E =       -54.9837663986
  O         5.3206086827        8.8317222987        7.0760286997
  H         5.8026561878        8.4364540715        6.3264157225
  H         5.2322004788        8.1059714621        7.7211863257
  O         7.8867759031        7.2651882537        9.0516996317
  C         8.3141271611        7.5306192931        7.9858789430
  O         8.7419387313        7.7758080476        6.9148844679
       6
 i =        2, E =       -54.9838370563
  O         5.3207135092        8.8276717234        7.0808755087
  H         5.7968675098        8.4358518753        6.3309895423
  H         5.2307682317        8.1030290441        7.7188143907
  O         7.8953745833        7.2729643047        9.0555303518
  C         8.3141676957        7.5246795998        7.9853288393
  O         8.7442817636        7.7818299155        6.9210903067
       6
 i =        3, E =       -54.9839499197
  O         5.3213419544        8.8258159358        7.0882267947
  H         5.7902245015        8.4364624119        6.3345938500
  H         5.2275359787        8.0987878966        7.7188636339
  O         7.8928665323        7.2670949847        9.0559854449
  C         8.3191519251        7.5300447093        7.9919215382
  O         8.7444558817        7.7874767335        6.9266769023
       6
 i =        4, E =       -54.9835220349
  O         5.3279725843        8.8193634400        7.1472094625
  H         5.7411170566        8.4442439796        6.3590962726
  H         5.2008519065        8.0654185653        7.7247222030
  O         7.8809432644        7.2392281014        9.0680739582
  C         8.3386062699        7.5619779208        8.0327538094
  O         8.7561634258        7.8478391767        6.9752464986
       6
 i =        5, E =       -54.9841351538
  O         5.3263068849        8.8239263025        7.1248467904
  H         5.7592193822        8.4439868260        6.3452711165
  H         5.2064353362        8.0762774920        7.7255281893
  O         7.8874667142        7.2494885507        9.0628619608
  C         8.3241927948        7.5497348159        8.0124913768
  O         8.7511687089        7.8231034534        6.9515885100
       6
 i =        6, E =       -54.9823311105
  O         5.3008168437        8.8404630802        7.0180812012
  H         5.8343553261        8.4318057747        6.2986261661
  H         5.2406461238        8.1302801190        7.7139982968
  O         7.8978005198        7.3186937415        9.0502085663
  C         8.2850552584        7.4962194800        7.9462334522
  O         8.7326592397        7.7056232983        6.8696418878
       6
 i =        7, E =       -54.9839730887
  O         5.3222123201        8.8281706401        7.0966231941
  H         5.7757842901        8.4410952723        6.3304895025
  H         5.2111811751        8.0890971446        7.7191901883
  O         7.8885726809        7.2823223106        9.0593787619
  C         8.3155224774        7.5356317123        7.9946527770
  O         8.7443416476        7.7858636687        6.9275089051
       6
 i =        8, E =       -54.9836306088
  O         5.3199926867        8.8184245491        7.1794643731
  H         5.7072494439        8.4498745752        6.3722030707
  H         5.1797704191        8.0437297915        7.7272117267
  O         7.8865070752        7.2072112722        9.0765268132
  C         8.3338415468        7.5785886491        8.0466168030
  O         8.7667858490        7.8801290409        6.9993457659
       6
 i =        9, E =       -54.9836896961
  O         5.3227397075        8.8125785452        7.2177110414
  H         5.6739939989        8.4615629340        6.3832762625
  H         5.1549202874        8.0208774853        7.7363170606
  O         7.8777208148        7.1716992393        9.0794870998
  C         8.3460500154        7.5690633671        8.0693909737
  O         8.7633605377        7.9357383895        7.0334016455
       6
 i =       10, E =       -54.9840827128
  O         5.3235407105        8.8126515181        7.1973138230
  H         5.6852471658        8.4677502547        6.3676313067
  H         5.1482613483        8.0287887540        7.7358801434
  O         7.8827750257        7.1887295056        9.0723473523
  C         8.3292686758        7.5478580145        8.0515958537
  O         8.7518314253        7.9225016495        7.0203319101
       6
 i =       11, E =       -54.9842951002
  O         5.3244595367        8.8202617108        7.1912396096
  H         5.6850094028        8.4689601061        6.3631435235
  H         5.1440967877        8.0318456468        7.7300229961
  O         7.8891159876        7.1862832292        9.0728209019
  C         8.3153158850        7.5576424837        8.0451204756
  O         8.7563048500        7.9090979960        7.0162941361
       6
 i =       12, E =       -54.9843168754
  O         5.3195407455        8.8261806981        7.1800269300
  H         5.6896215397        8.4689410081        6.3566120097
  H         5.1459279488        8.0403036516        7.7263505451
  O         7.8851166771        7.1952324978        9.0722791677
  C         8.3118393126        7.5547507295        8.0380171480
  O         8.7530364963        7.8898512019        7.0024122131
       6
 i =       13, E =       -54.9843661438
  O         5.3152651936        8.8251642254        7.1909733692
  H         5.6774110726        8.4727022691        6.3603940502
  H         5.1383201188        8.0361174993        7.7280539142
  O         7.8818631997        7.1863786283        9.0736710136
  C         8.3151834934        7.5547510418        8.0429964522
  O         8.7511752573        7.9022755621        7.0073893112
       6
 i =       14, E =       -54.9843932116
  O         5.3171671863        8.8250254035        7.1902731030
  H         5.6765666579        8.4734577580        6.3588831561
  H         5.1352208726        8.0369390783        7.7279625384
  O         7.8852846765        7.1855504669        9.0730608887
  C         8.3139242030        7.5506054804        8.0410828474
  O         8.7521475596        7.8987178584        7.0072830552
       6
 i =       15, E =       -54.9844076584
  O         5.3167528859        8.8266923578        7.1904487457
  H         5.6719173500        8.4745687009        6.3578246477
  H         5.1292459071        8.0380909158        7.7264820683
  O         7.8862537937        7.1856135176        9.0724165205
  C         8.3140127261        7.5472750659        8.0392817594
  O         8.7520338383        7.8946293618        7.0052551640
       6
 i =       16, E =       -54.9844331492
  O         5.3155554019        8.8275147281        7.1912225916
  H         5.6591154172        8.4768092493        6.3538507157
  H         5.1132775578        8.0402073598        7.7239844950
  O         7.8873717925        7.1853292023        9.0705294125
  C         8.3149184540        7.5426272575        8.0357567399
  O         8.7520536091        7.8897137981        7.0012145326
       6
 i =       17, E =       -54.9844931999
  O         5.3153202275        8.8317616435        7.1939168694
  H         5.6238280301        8.4783923851        6.3444345221
  H         5.0728950810        8.0445428551        7.7133981326
  O         7.8895452541        7.1859489326        9.0645089828
  C         8.3171815970        7.5357597418        8.0267333367
  O         8.7506647909        7.8828847209        6.9902105508
       6
 i =       18, E =       -54.9836317917
  O         5.3094656997        8.8419211699        7.1973885301
  H         5.4633704010        8.4815913722        6.2939948432
  H         4.8906967355        8.0688899595        7.6661815869
  O         7.9026904043        7.1932372781        9.0335853524
  C         8.3237317332        7.5125039951        7.9784059246
  O         8.7412027067        7.8511945956        6.9289633344
       6
 i =       19, E =       -54.9845818871
  O         5.3113251557        8.8307653545        7.1915376591
  H         5.5952462366        8.4772516082        6.3356525279
  H         5.0428249774        8.0511598435        7.7047892862
  O         7.8916443809        7.1881807711        9.0577686201
  C         8.3177314614        7.5345064016        8.0170393578
  O         8.7494667971        7.8786772471        6.9779935503
       6
 i =       20, E =       -54.9846452814
  O         5.3150457594        8.8298935311        7.1925508690
  H         5.5824842278        8.4756251437        6.3300793992
  H         5.0304087446        8.0528296885        7.7015436112
  O         7.8923348757        7.1890619759        9.0556211416
  C         8.3165939200        7.5367229157        8.0138947551
  O         8.7471881683        7.8781291635        6.9732138931
       6
 i =       21, E =       -54.9845502741
  O         5.3196336376        8.8262683294        7.1922666451
  H         5.4761673639        8.4672644885        6.2948767790
  H         4.9239870024        8.0687056948        7.6695659067
  O         7.8986360468        7.1936329864        9.0348455636
  C         8.3099619427        7.5436938216        7.9854701613
  O         8.7349035052        7.8773633607        6.9366343487
       6
 i =       22, E =       -54.9847873830
  O         5.3179599374        8.8252478089        7.1925997520
  H         5.5365584510        8.4710897765        6.3157203319
  H         4.9853568409        8.0582134344        7.6880678469
  O         7.8933442829        7.1898318035        9.0467341891
  C         8.3120375870        7.5449447011        8.0046529718
  O         8.7424209949        7.8880042838        6.9633402762
       6
 i =       23, E =       -54.9848214935
  O         5.3170365987        8.8241107716        7.1922470831
  H         5.5164650636        8.4706501491        6.3093958130
  H         4.9658463049        8.0620068014        7.6827494997
  O         7.8933416855        7.1909880031        9.0437722908
  C         8.3109389461        7.5471931487        8.0012916229
  O         8.7435835708        7.8885145953        6.9601363395
       6
 i =       24, E =       -54.9848577109
  O         5.3156682928        8.8210729143        7.1901771615
  H         5.4573878759        8.4704038691        6.2913886943
  H         4.9068643808        8.0752547008        7.6669096273
  O         7.8933447125        7.1936041578        9.0377636213
  C         8.3087165386        7.5528791620        7.9950702783
  O         8.7463138328        7.8927127032        6.9552813917
       6
 i =       25, E =       -54.9848902591
  O         5.3136734439        8.8223066287        7.1877162542
  H         5.4630905592        8.4720717811        6.2930299306
  H         4.9124372934        8.0785896561        7.6682265541
  O         7.8931853995        7.1947027282        9.0397034142
  C         8.3098169970        7.5510816546        7.9963916335
  O         8.7463503859        7.8893080626        6.9557269104
       6
 i =       26, E =       -54.9849299755
  O         5.3136184455        8.8224794122        7.1875124659
  H         5.4501899423        8.4759245075        6.2902802538
  H         4.9003324177        8.0865940862        7.6667114586
  O         7.8925297526        7.1939599815        9.0428626047
  C         8.3095418653        7.5513349421        8.0004539851
  O         8.7464716229        7.8905118840        6.9607438595
       6
 i =       27, E =       -54.9850161291
  O         5.3129058726        8.8235881981        7.1823592411
  H         5.3652212618        8.4917783616        6.2681583807
  H         4.8126807397        8.1298287478        7.6498994765
  O         7.8920763987        7.1943988227        9.0495530519
  C         8.3079959299        7.5499620258        8.0064829692
  O         8.7430139849        7.8885223392        6.9665045342
       6
 i =       28, E =       -54.9850521558
  O         5.3156243562        8.8253674819        7.1850151714
  H         5.3732508251        8.4972942323        6.2731169399
  H         4.8212203137        8.1337930157        7.6546611342
  O         7.8926062012        7.1920227510        9.0537915319
  C         8.3085043877        7.5474100002        8.0105666475
  O         8.7412821429        7.8877032771        6.9695214785
       6
 i =       29, E =       -54.9850842249
  O         5.3169069790        8.8263053386        7.1874340041
  H         5.3410857804        8.5102282659        6.2680975410
  H         4.7897651731        8.1552260245        7.6527616637
  O         7.8920014968        7.1902915360        9.0563109872
  C         8.3083760927        7.5454460512        8.0131909432
  O         8.7421520848        7.8864224934        6.9722324874
       6
 i =       30, E =       -54.9851190320
  O         5.3173201514        8.8268380275        7.1897583395
  H         5.3033452371        8.5283618544        6.2634340306
  H         4.7504029992        8.1830709079        7.6514170077
  O         7.8907750062        7.1903519169        9.0539067834
  C         8.3085946004        7.5449050571        8.0112680496
  O         8.7444940991        7.8859792731        6.9709550423
       6
 i =       31, E =       -54.9851617584
  O         5.3165068532        8.8272245160        7.1934603068
  H         5.2858347144        8.5437788521        6.2641750197
  H         4.7347237090        8.2007438189        7.6543143652
  O         7.8907476483        7.1912821619        9.0478460093
  C         8.3087538142        7.5460452801        8.0053966793
  O         8.7466281876        7.8865114054        6.9657685780
       6
 i =       32, E =       -54.9851848681
  O         5.3168188862        8.8281361014        7.1931909191
  H         5.2417180419        8.5689939389        6.2591551904
  H         4.6895158982        8.2399315268        7.6521448332
  O         7.8930958323        7.1928167911        9.0444706184
  C         8.3074819182        7.5479439137        8.0004781637
  O         8.7427467268        7.8889008907        6.9603281889
       6
 i =       33, E =       -54.9852023680
  O         5.3172490673        8.8277478313        7.1911770140
  H         5.2496967986        8.5685805034        6.2599160125
  H         4.6989200376        8.2381862285        7.6526509573
  O         7.8932003749        7.1932318529        9.0450119527
  C         8.3061739553        7.5490809132        8.0005736209
  O         8.7415261972        7.8897770931        6.9606038669
       6
 i =       34, E =       -54.9852227178
  O         5.3171509885        8.8276068184        7.1912057127
  H         5.2266240286        8.5819687292        6.2552901217
  H         4.6823198804        8.2571948662        7.6518353909
  O         7.8924884441        7.1931830392        9.0462905419
  C         8.3049034435        7.5492327310        8.0017381172
  O         8.7427602916        7.8890751618        6.9626017689
       6
 i =       35, E =       -54.9852268871
  O         5.3180270367        8.8272357863        7.1892833087
  H         5.1834435453        8.6111412745        6.2490264168
  H         4.6416677118        8.2997531288        7.6504596185
  O         7.8912594168        7.1932823307        9.0475348283
  C         8.3034436372        7.5493371914        8.0029155395
  O         8.7444633376        7.8883554265        6.9647140111
       6
 i =       36, E =       -54.9852452716
  O         5.3176109398        8.8268789716        7.1889791152
  H         5.2011483479        8.6013339864        6.2519161965
  H         4.6580513579        8.2846476310        7.6508022222
  O         7.8915022178        7.1929443183        9.0482370100
  C         8.3046484648        7.5486224630        8.0040185276
  O         8.7439365905        7.8882245776        6.9652374739
       6
 i =       37, E =       -54.9852541975
  O         5.3172763828        8.8266295872        7.1889109013
  H         5.1873060102        8.6122774218        6.2508789683
  H         4.6466323021        8.2986714770        7.6505768614
  O         7.8920212536        7.1928064108        9.0483840699
  C         8.3050235090        7.5482948395        8.0041403589
  O         8.7428004754        7.8885656901        6.9650089305
       6
 i =       38, E =       -54.9852525227
  O         5.3169062788        8.8258023050        7.1884108496
  H         5.1346480450        8.6576718599        6.2472602538
  H         4.6000522154        8.3561272240        7.6509427386
  O         7.8921510553        7.1918616674        9.0487567711
  C         8.3055450552        7.5471066285        8.0046220467
  O         8.7424030737        7.8881970512        6.9653466552
       6
 i =       39, E =       -54.9852681482
  O         5.3169914245        8.8261601488        7.1889995308
  H         5.1635706278        8.6360174731        6.2502028288
  H         4.6257994836        8.3266634290        7.6513420634
  O         7.8920608787        7.1920745911        9.0482890260
  C         8.3056502458        7.5474631568        8.0042076031
  O         8.7428787253        7.8882420404        6.9649726907
       6
 i =       40, E =       -54.9852735207
  O         5.3170899402        8.8261705192        7.1891644273
  H         5.1521274280        8.6479609603        6.2496466805
  H         4.6161095115        8.3404961121        7.6519388354
  O         7.8919924908        7.1920460242        9.0480652688
  C         8.3055938417        7.5473452443        8.0039396761
  O         8.7429442656        7.8882251268        6.9648045005
       6
 i =       41, E =       -54.9852461526
  O         5.3176354521        8.8264429593        7.1895079553
  H         5.0983667008        8.7069510740        6.2474777922
  H         4.5701778834        8.4081392819        7.6549336248
  O         7.8918361394        7.1919696889        9.0474760309
  C         8.3051913214        7.5468780728        8.0030833834
  O         8.7431918013        7.8881059651        6.9643820662
       6
 i =       42, E =       -54.9852785134
  O         5.3173386372        8.8264084231        7.1894199447
  H         5.1419145248        8.6614033221        6.2495539904
  H         4.6075058229        8.3548386297        7.6529372241
  O         7.8919257470        7.1921630334        9.0477434092
  C         8.3054242435        7.5473451265        8.0035128402
  O         8.7431144202        7.8882415142        6.9645397531
       6
 i =       43, E =       -54.9852813038
  O         5.3174509920        8.8265153288        7.1894977806
  H         5.1348509656        8.6704461666        6.2494022878
  H         4.6015347555        8.3645144175        7.6534860700
  O         7.8919225109        7.1922220736        9.0476878257
  C         8.3053119661        7.5473461511        8.0033922209
  O         8.7431551774        7.8882564011        6.9644882407
       6
 i =       44, E =       -54.9852690516
  O         5.3179265662        8.8268960528        7.1898043673
  H         5.0903114392        8.7275182106        6.2484854280
  H         4.5641134232        8.4251567683        7.6565811034
  O         7.8919226707        7.1924695220        9.0475795819
  C         8.3047661929        7.5472235908        8.0029419264
  O         8.7432463383        7.8883259882        6.9643474028
       6
 i =       45, E =       -54.9852848058
  O         5.3175797544        8.8266466520        7.1895661200
  H         5.1252137680        8.6841451200        6.2493780015
  H         4.5934427680        8.3784473752        7.6542508185
  O         7.8919342540        7.1923227965        9.0476845792
  C         8.3051590487        7.5473529434        8.0032929377
  O         8.7431810984        7.8882850290        6.9644602083
       6
 i =       46, E =       -54.9852866902
  O         5.3176325056        8.8266809417        7.1896064202
  H         5.1188370261        8.6931080040        6.2493275751
  H         4.5881472870        8.3874806322        7.6546962379
  O         7.8919381700        7.1923627747        9.0476944982
  C         8.3050782687        7.5473391465        8.0032522916
  O         8.7431763644        7.8883002413        6.9644557396
       6
 i =       47, E =       -54.9852819759
  O         5.3178708519        8.8268007010        7.1897063796
  H         5.0860375282        8.7400104484        6.2492506777
  H         4.5607926383        8.4344143090        7.6568662940
  O         7.8919401419        7.1924710128        9.0477272630
  C         8.3047465855        7.5471666522        8.0030623965
  O         8.7431529859        7.8883179177        6.9644390703
       6
 i =       48, E =       -54.9852890031
  O         5.3176916156        8.8267061381        7.1896209153
  H         5.1103022316        8.7063183253        6.2494237102
  H         4.5810455208        8.4001852271        7.6552608461
  O         7.8919406802        7.1923959639        9.0477150951
  C         8.3049868125        7.5472980032        8.0032132044
  O         8.7431606512        7.8883086547        6.9644591382
       6
 i =       49, E =       -54.9852900790
  O         5.3177217295        8.8267087489        7.1896350524
  H         5.1053431267        8.7141484411        6.2494862900
  H         4.5769397733        8.4075935360        7.6555746448
  O         7.8919383571        7.1924047309        9.0477184080
  C         8.3049402053        7.5472679462        8.0031874443
  O         8.7431509374        7.8883121862        6.9644588005
       6
 i =       50, E =       -54.9852905120
  O         5.3178463509        8.8267236689        7.1896518258
  H         5.0864083566        8.7450601935        6.2498625835
  H         4.5611612517        8.4364138056        7.6567279046
  O         7.8919246494        7.1924176113        9.0477134143
  C         8.3047818670        7.5471285990        8.0030803101
  O         8.7431253790        7.8883090113        6.9644512326
       6
 i =       51, E =       -54.9852918843
  O         5.3177850593        8.8267084425        7.1896316700
  H         5.0958587988        8.7307539151        6.2497992569
  H         4.5690144661        8.4225438609        7.6561232784
  O         7.8919301568        7.1924068744        9.0477142626
  C         8.3048634922        7.5471948107        8.0031353314
  O         8.7431347446        7.8883109193        6.9644563956
       6
 i =       52, E =       -54.9852923996
  O         5.3178025034        8.8267000738        7.1896380835
  H         5.0930778705        8.7362729123        6.2499498186
  H         4.5666907261        8.4271748709        7.6562584391
  O         7.8919264385        7.1924042129        9.0477081673
  C         8.3048426914        7.5471732032        8.0031177208
  O         8.7431293200        7.8883128064        6.9644544216
       6
 i =       53, E =       -54.9852935677
  O         5.3178840766        8.8266918353        7.1896196663
  H         5.0824400562        8.7583448337        6.2506222774
  H         4.5576117361        8.4453167725        7.6566585925
  O         7.8919128696        7.1923979157        9.0476897058
  C         8.3047646712        7.5470783285        8.0030511368
  O         8.7431166860        7.8883069202        6.9644475717
       6
 i =       54, E =       -54.9852940009
  O         5.3178989927        8.8266786603        7.1896257379
  H         5.0807427356        8.7639640519        6.2509327957
  H         4.5560325404        8.4490182907        7.6565937401
  O         7.8919114529        7.1923932772        9.0476804127
  C         8.3047559890        7.5470631077        8.0030368377
  O         8.7431132902        7.8883117918        6.9644441048
       6
 i =       55, E =       -54.9852942604
  O         5.3179366699        8.8266726104        7.1896354997
  H         5.0762375757        8.7756751301        6.2514361510
  H         4.5519199330        8.4575305405        7.6565472176
  O         7.8919074877        7.1923926633        9.0476688527
  C         8.3047266423        7.5470203828        8.0030027226
  O         8.7431124004        7.8883124411        6.9644370081
       6
 i =       56, E =       -54.9852943613
  O         5.3179509294        8.8266775329        7.1896470909
  H         5.0746429031        8.7812897272        6.2517382484
  H         4.5502498223        8.4610045113        7.6563395071
  O         7.8919062147        7.1923958486        9.0476659864
  C         8.3047151367        7.5470010335        8.0029882102
  O         8.7431155487        7.8883125049        6.9644332199
       6
 i =       57, E =       -54.9852944059
  O         5.3179643526        8.8266659265        7.1896868457
  H         5.0719598394        8.7891027487        6.2520501701
  H         4.5476680605        8.4661248443        7.6561066863
  O         7.8919038859        7.1923986978        9.0476598091
  C         8.3046930739        7.5469789932        8.0029656394
  O         8.7431135075        7.8883196952        6.9644291103
       6
 i =       58, E =       -54.9852944452
  O         5.3179677270        8.8266703656        7.1896834098
  H         5.0716744747        8.7911676418        6.2521351969
  H         4.5471536965        8.4669329996        7.6558141021
  O         7.8919036223        7.1924029216        9.0476625579
  C         8.3046890715        7.5469716139        8.0029624323
  O         8.7431144391        7.8883178222        6.9644293067
       6
 i =       59, E =       -54.9852945205
  O         5.3179738887        8.8266714209        7.1896910815
  H         5.0707918110        8.7965533535        6.2522766552
  H         4.5457564702        8.4689908553        7.6549955376
  O         7.8919019237        7.1924070001        9.0476644687
  C         8.3046768045        7.5469550907        8.0029538573
  O         8.7431150809        7.8883198561        6.9644296245
       6
 i =       60, E =       -54.9852946766
  O         5.3179883116        8.8266727715        7.1896915795
  H         5.0694815106        8.8065341349        6.2524116502
  H         4.5432274657        8.4720491087        7.6530666911
  O         7.8919003151        7.1924099397        9.0476644913
  C         8.3046575377        7.5469273647        8.0029370994
  O         8.7431143025        7.8883208161        6.9644290038
       6
 i =       61, E =       -54.9852950261
  O         5.3180152681        8.8266680986        7.1897062779
  H         5.0684931373        8.8274449636        6.2523752510
  H         4.5385625729        8.4751419115        7.6474366540
  O         7.8918973176        7.1924025924        9.0476502763
  C         8.3046278585        7.5468820531        8.0029056731
  O         8.7431169023        7.8883373143        6.9644250760
       6
 i =       62, E =       -54.9852955549
  O         5.3180335081        8.8267031059        7.1896482720
  H         5.0740396324        8.8465835019        6.2514138193
  H         4.5364079198        8.4664794390        7.6366560771
  O         7.8919059393        7.1923831057        9.0476293245
  C         8.3046293336        7.5468673945        8.0028961668
  O         8.7431347435        7.8883585241        6.9644198697
       6
 i =       63, E =       -54.9852945268
  O         5.3181024588        8.8268530581        7.1896110698
  H         5.0768113576        8.8835596019        6.2507944475
  H         4.5290776783        8.4627828580        7.6213639743
  O         7.8919257987        7.1923809695        9.0475810714
  C         8.3045845815        7.5468141985        8.0028200099
  O         8.7431983486        7.8883880228        6.9643876855
       6
 i =       64, E =       -54.9852960859
  O         5.3180574461        8.8269095451        7.1896561627
  H         5.0782533290        8.8569296770        6.2508298126
  H         4.5350518578        8.4576380147        7.6275680874
  O         7.8919351324        7.1924054445        9.0475899256
  C         8.3046063952        7.5468925382        8.0028416126
  O         8.7432152011        7.8883874311        6.9643826752
       6
 i =       65, E =       -54.9852964449
  O         5.3179984666        8.8266416882        7.1898275787
  H         5.0803493245        8.8581573498        6.2503141137
  H         4.5360558193        8.4531742295        7.6253140439
  O         7.8919029362        7.1924024903        9.0475850678
  C         8.3046297883        7.5469336510        8.0028701021
  O         8.7431491052        7.8884190004        6.9644021591
       6
 i =       66, E =       -54.9852970265
  O         5.3179588679        8.8264617107        7.1898919969
  H         5.0874517365        8.8680907229        6.2487714249
  H         4.5365914010        8.4386002896        7.6142301089
  O         7.8918645685        7.1923912117        9.0475849556
  C         8.3046398881        7.5469393775        8.0028974364
  O         8.7431052010        7.8884164813        6.9644170521
       6
 i =       67, E =       -54.9852973189
  O         5.3179287849        8.8265065941        7.1898755351
  H         5.0954911546        8.8737187548        6.2467604155
  H         4.5388100553        8.4205282089        7.6021468955
  O         7.8918374926        7.1923692948        9.0475961605
  C         8.3045997804        7.5469192818        8.0029054893
  O         8.7431008259        7.8883811987        6.9644150189
       6
 i =       68, E =       -54.9852976921
  O         5.3179536481        8.8265912637        7.1897254494
  H         5.0940389059        8.8637642266        6.2466114163
  H         4.5408615744        8.4218028044        7.6058367012
  O         7.8918365293        7.1923650411        9.0476207943
  C         8.3045978149        7.5468874074        8.0029191332
  O         8.7431016822        7.8883307649        6.9644149914
       6
 i =       69, E =       -54.9852979352
  O         5.3179629036        8.8265424721        7.1896277069