 DBCSR| Multiplication driver                                               BLAS
 DBCSR| Multrec recursion limit                                              512
 DBCSR| Multiplication stack size                                           1000
 DBCSR| Maximum elements for images                                    UNLIMITED
 DBCSR| Multiplicative factor virtual images                                   1
 DBCSR| Multiplication size stacks                                             3
 DBCSR| Number of 3D layers                                               SINGLE
 DBCSR| Use MPI memory allocation                                              T
 DBCSR| Use RMA algorithm                                                      F
 DBCSR| Use Communication thread                                               T
 DBCSR| Communication thread load                                             87


  **** **** ******  **  PROGRAM STARTED AT               2018-10-05 08:20:26.209
 ***** ** ***  *** **   PROGRAM STARTED ON                                  g081
 **    ****   ******    PROGRAM STARTED BY                                 macer
 ***** **    ** ** **   PROGRAM PROCESS ID                                  9935
  **** **  *******  **  PROGRAM STARTED IN         /home/macer/H2OCO2 folder/co2

 CP2K| version string:                                          CP2K version 5.1
 CP2K| source code revision number:                                    svn:18091
 CP2K| cp2kflags: libint fftw3 pexsi parallel mpi3 scalapack libderiv_max_am1=5 
 CP2K|            libint_max_am=6
 CP2K| is freely available from                            https://www.cp2k.org/
 CP2K| Program compiled at                          Thu Jul 5 10:57:58 CEST 2018
 CP2K| Program compiled on                                                  g005
 CP2K| Program compiled for                  linux-rhel7-x86_S6g1_Mellanox-intel
 CP2K| Data directory path    /dev/shm/scitasbuild/spack-stage/spack-stage-Kdd_n
 CP2K| Input file name                                                  CP2K.inp
 
 GLOBAL| Force Environment number                                              1
 GLOBAL| Basis set file name                                      ./BASIS_MOLOPT
 GLOBAL| Potential file name                                    ./GTH_POTENTIALS
 GLOBAL| MM Potential file name                                     MM_POTENTIAL
 GLOBAL| Coordinate file name                                      __STD_INPUT__
 GLOBAL| Method name                                                        CP2K
 GLOBAL| Project name                                                       cp2k
 GLOBAL| Preferred FFT library                                             FFTW3
 GLOBAL| Preferred diagonalization lib.                                       SL
 GLOBAL| Run type                                                         ENERGY
 GLOBAL| All-to-all communication in single precision                          F
 GLOBAL| FFTs using library dependent lengths                                  F
 GLOBAL| Global print level                                               MEDIUM
 GLOBAL| Total number of message passing processes                            25
 GLOBAL| Number of threads for this process                                    1
 GLOBAL| This output is from process                                           0
 GLOBAL| CPU model name :  Intel(R) Xeon(R) Gold 6132 CPU @ 2.60GHz

 MEMORY| system memory details [Kb]
 MEMORY|                        rank 0           min           max       average
 MEMORY| MemTotal            197738988     197738988     197738988     197738988
 MEMORY| MemFree             180271516     180271516     180271516     180271516
 MEMORY| Buffers                  1252          1252          1252          1252
 MEMORY| Cached                 285332        285332        285332        285332
 MEMORY| Slab                  1441248       1441248       1441248       1441248
 MEMORY| SReclaimable           495804        495804        495804        495804
 MEMORY| MemLikelyFree       181053904     181053904     181053904     181053904


 *** Fundamental physical constants (SI units) ***

 *** Literature: B. J. Mohr and B. N. Taylor,
 ***             CODATA recommended values of the fundamental physical
 ***             constants: 2006, Web Version 5.1
 ***             http://physics.nist.gov/constants

 Speed of light in vacuum [m/s]                             2.99792458000000E+08
 Magnetic constant or permeability of vacuum [N/A**2]       1.25663706143592E-06
 Electric constant or permittivity of vacuum [F/m]          8.85418781762039E-12
 Planck constant (h) [J*s]                                  6.62606896000000E-34
 Planck constant (h-bar) [J*s]                              1.05457162825177E-34
 Elementary charge [C]                                      1.60217648700000E-19
 Electron mass [kg]                                         9.10938215000000E-31
 Electron g factor [ ]                                     -2.00231930436220E+00
 Proton mass [kg]                                           1.67262163700000E-27
 Fine-structure constant                                    7.29735253760000E-03
 Rydberg constant [1/m]                                     1.09737315685270E+07
 Avogadro constant [1/mol]                                  6.02214179000000E+23
 Boltzmann constant [J/K]                                   1.38065040000000E-23
 Atomic mass unit [kg]                                      1.66053878200000E-27
 Bohr radius [m]                                            5.29177208590000E-11

 *** Conversion factors ***

 [u] -> [a.u.]                                              1.82288848426455E+03
 [Angstrom] -> [Bohr] = [a.u.]                              1.88972613288564E+00
 [a.u.] = [Bohr] -> [Angstrom]                              5.29177208590000E-01
 [a.u.] -> [s]                                              2.41888432650478E-17
 [a.u.] -> [fs]                                             2.41888432650478E-02
 [a.u.] -> [J]                                              4.35974393937059E-18
 [a.u.] -> [N]                                              8.23872205491840E-08
 [a.u.] -> [K]                                              3.15774647902944E+05
 [a.u.] -> [kJ/mol]                                         2.62549961709828E+03
 [a.u.] -> [kcal/mol]                                       6.27509468713739E+02
 [a.u.] -> [Pa]                                             2.94210107994716E+13
 [a.u.] -> [bar]                                            2.94210107994716E+08
 [a.u.] -> [atm]                                            2.90362800883016E+08
 [a.u.] -> [eV]                                             2.72113838565563E+01
 [a.u.] -> [Hz]                                             6.57968392072181E+15
 [a.u.] -> [1/cm] (wave numbers)                            2.19474631370540E+05
 [a.u./Bohr**2] -> [1/cm]                                   5.14048714338585E+03
 

 CELL_TOP| Volume [angstrom^3]:                                         3375.000
 CELL_TOP| Vector a [angstrom    15.000     0.000     0.000    |a| =      15.000
 CELL_TOP| Vector b [angstrom     0.000    15.000     0.000    |b| =      15.000
 CELL_TOP| Vector c [angstrom     0.000     0.000    15.000    |c| =      15.000
 CELL_TOP| Angle (b,c), alpha [degree]:                                   90.000
 CELL_TOP| Angle (a,c), beta  [degree]:                                   90.000
 CELL_TOP| Angle (a,b), gamma [degree]:                                   90.000
 CELL_TOP| Numerically orthorhombic:                                         YES
 
 GENERATE|  Preliminary Number of Bonds generated:                             0
 GENERATE|  Achieved consistency in connectivity generation.

 CELL| Volume [angstrom^3]:                                             3375.000
 CELL| Vector a [angstrom]:      15.000     0.000     0.000    |a| =      15.000
 CELL| Vector b [angstrom]:       0.000    15.000     0.000    |b| =      15.000
 CELL| Vector c [angstrom]:       0.000     0.000    15.000    |c| =      15.000
 CELL| Angle (b,c), alpha [degree]:                                       90.000
 CELL| Angle (a,c), beta  [degree]:                                       90.000
 CELL| Angle (a,b), gamma [degree]:                                       90.000
 CELL| Numerically orthorhombic:                                             YES

 CELL_REF| Volume [angstrom^3]:                                         3375.000
 CELL_REF| Vector a [angstrom    15.000     0.000     0.000    |a| =      15.000
 CELL_REF| Vector b [angstrom     0.000    15.000     0.000    |b| =      15.000
 CELL_REF| Vector c [angstrom     0.000     0.000    15.000    |c| =      15.000
 CELL_REF| Angle (b,c), alpha [degree]:                                   90.000
 CELL_REF| Angle (a,c), beta  [degree]:                                   90.000
 CELL_REF| Angle (a,b), gamma [degree]:                                   90.000
 CELL_REF| Numerically orthorhombic:                                         YES

 *******************************************************************************
 *******************************************************************************
 **                                                                           **
 **     #####                         ##              ##                      **
 **    ##   ##            ##          ##              ##                      **
 **   ##     ##                       ##            ######                    **
 **   ##     ##  ##   ##  ##   #####  ##  ##   ####   ##    #####    #####    **
 **   ##     ##  ##   ##  ##  ##      ## ##   ##      ##   ##   ##  ##   ##   **
 **   ##  ## ##  ##   ##  ##  ##      ####     ###    ##   ######   ######    **
 **    ##  ###   ##   ##  ##  ##      ## ##      ##   ##   ##       ##        **
 **     #######   #####   ##   #####  ##  ##  ####    ##    #####   ##        **
 **           ##                                                    ##        **
 **                                                                           **
 **                                                ... make the atoms dance   **
 **                                                                           **
 **            Copyright (C) by CP2K developers group (2000 - 2017)           **
 **                                                                           **
 *******************************************************************************

 DFT| Spin restricted Kohn-Sham (RKS) calculation                            RKS
 DFT| Multiplicity                                                             1
 DFT| Number of spin states                                                    1
 DFT| Charge                                                                   0
 DFT| Self-interaction correction (SIC)                                       NO
 DFT| Cutoffs: density                                              1.000000E-10
 DFT|          gradient                                             1.000000E-10
 DFT|          tau                                                  1.000000E-10
 DFT|          cutoff_smoothing_range                               0.000000E+00
 DFT| XC density smoothing                                                  NONE
 DFT| XC derivatives                                                          PW
 FUNCTIONAL| ROUTINE=NEW
 FUNCTIONAL| PBE:
 FUNCTIONAL| J.P.Perdew, K.Burke, M.Ernzerhof, Phys. Rev. Letter, vol. 77, n 18,
 FUNCTIONAL|  pp. 3865-3868, (1996){spin unpolarized}                           
 vdW POTENTIAL|                                                   Pair Potential
 vdW POTENTIAL|          DFT-D3 (Version 3.1)
 vdW POTENTIAL|          Potential Form: S. Grimme et al, JCP 132: 154104 (2010)
 vdW POTENTIAL|          BJ Damping: S. Grimme et al, JCC 32: 1456 (2011)
 vdW POTENTIAL|          Cutoff Radius [Bohr]:                             20.00
 vdW POTENTIAL|          s6 Scaling Factor:                               1.0000
 vdW POTENTIAL|          a1 Damping Factor:                               0.4289
 vdW POTENTIAL|          s8 Scaling Factor:                               0.7875
 vdW POTENTIAL|          a2 Damping Factor:                               4.4407
 vdW POTENTIAL|          Cutoff for CN calculation:                   0.1000E-05

 QS| Method:                                                                 GPW
 QS| Density plane wave grid type                        NON-SPHERICAL FULLSPACE
 QS| Number of grid levels:                                                    4
 QS| Density cutoff [a.u.]:                                                200.0
 QS| Multi grid cutoff [a.u.]: 1) grid level                               200.0
 QS|                           2) grid level                                66.7
 QS|                           3) grid level                                22.2
 QS|                           4) grid level                                 7.4
 QS| Grid level progression factor:                                          3.0
 QS| Relative density cutoff [a.u.]:                                        25.0
 QS| Consistent realspace mapping and integration 
 QS| Interaction thresholds: eps_pgf_orb:                                1.0E-05
 QS|                         eps_filter_matrix:                          0.0E+00
 QS|                         eps_core_charge:                            1.0E-12
 QS|                         eps_rho_gspace:                             1.0E-10
 QS|                         eps_rho_rspace:                             1.0E-10
 QS|                         eps_gvg_rspace:                             1.0E-05
 QS|                         eps_ppl:                                    1.0E-02
 QS|                         eps_ppnl:                                   1.0E-07


 ATOMIC KIND INFORMATION

  1. Atomic kind: O                                     Number of atoms:       2

     Orbital Basis Set                                        DZVP-MOLOPT-SR-GTH

       Number of orbital shell sets:                                           1
       Number of orbital shells:                                               5
       Number of primitive Cartesian functions:                                5
       Number of Cartesian basis functions:                                   14
       Number of spherical basis functions:                                   13
       Norm type:                                                              2

       Normalised Cartesian orbitals:

                        Set   Shell   Orbital            Exponent    Coefficient

                          1       1    2s               10.389228       0.396646
                                                         3.849621       0.208811
                                                         1.388401      -0.301641
                                                         0.496955      -0.274061
                                                         0.162492      -0.033677

                          1       2    3s               10.389228       0.303673
                                                         3.849621       0.240943
                                                         1.388401      -0.313066
                                                         0.496955      -0.043055
                                                         0.162492       0.213991

                          1       3    3px              10.389228      -1.530415
                                                         3.849621      -1.371928
                                                         1.388401      -0.761951
                                                         0.496955      -0.253695
                                                         0.162492      -0.035541
                          1       3    3py              10.389228      -1.530415
                                                         3.849621      -1.371928
                                                         1.388401      -0.761951
                                                         0.496955      -0.253695
                                                         0.162492      -0.035541
                          1       3    3pz              10.389228      -1.530415
                                                         3.849621      -1.371928
                                                         1.388401      -0.761951
                                                         0.496955      -0.253695
                                                         0.162492      -0.035541

                          1       4    4px              10.389228      -0.565392
                                                         3.849621      -0.038231
                                                         1.388401      -0.382373
                                                         0.496955       0.179070
                                                         0.162492       0.122714
                          1       4    4py              10.389228      -0.565392
                                                         3.849621      -0.038231
                                                         1.388401      -0.382373
                                                         0.496955       0.179070
                                                         0.162492       0.122714
                          1       4    4pz              10.389228      -0.565392
                                                         3.849621      -0.038231
                                                         1.388401      -0.382373
                                                         0.496955       0.179070
                                                         0.162492       0.122714

                          1       5    4dx2             10.389228       1.867377
                                                         3.849621       0.670994
                                                         1.388401       1.353441
                                                         0.496955       0.273538
                                                         0.162492       0.006620
                          1       5    4dxy             10.389228       3.234392
                                                         3.849621       1.162195
                                                         1.388401       2.344229
                                                         0.496955       0.473781
                                                         0.162492       0.011466
                          1       5    4dxz             10.389228       3.234392
                                                         3.849621       1.162195
                                                         1.388401       2.344229
                                                         0.496955       0.473781
                                                         0.162492       0.011466
                          1       5    4dy2             10.389228       1.867377
                                                         3.849621       0.670994
                                                         1.388401       1.353441
                                                         0.496955       0.273538
                                                         0.162492       0.006620
                          1       5    4dyz             10.389228       3.234392
                                                         3.849621       1.162195
                                                         1.388401       2.344229
                                                         0.496955       0.473781
                                                         0.162492       0.011466
                          1       5    4dz2             10.389228       1.867377
                                                         3.849621       0.670994
                                                         1.388401       1.353441
                                                         0.496955       0.273538
                                                         0.162492       0.006620

     GTH Potential information for                                       GTH-PBE

       Description:                       Goedecker-Teter-Hutter pseudopotential
                                           Goedecker et al., PRB 54, 1703 (1996)
                                          Hartwigsen et al., PRB 58, 3641 (1998)
                                                      Krack, TCA 114, 145 (2005)

       Gaussian exponent of the core charge distribution:               8.360253
       Electronic configuration (s p d ...):                               2   4

       Parameters of the local part of the GTH pseudopotential:

                          rloc        C1          C2          C3          C4
                        0.244554  -16.667215    2.487311

       Parameters of the non-local part of the GTH pseudopotential:

                   l      r(l)      h(i,j,l)

                   0    0.220956   18.337458
                   1    0.211332

  2. Atomic kind: C                                     Number of atoms:       1

     Orbital Basis Set                                        DZVP-MOLOPT-SR-GTH

       Number of orbital shell sets:                                           1
       Number of orbital shells:                                               5
       Number of primitive Cartesian functions:                                5
       Number of Cartesian basis functions:                                   14
       Number of spherical basis functions:                                   13
       Norm type:                                                              2

       Normalised Cartesian orbitals:

                        Set   Shell   Orbital            Exponent    Coefficient

                          1       1    2s                5.605331       0.322515
                                                         2.113016       0.213043
                                                         0.769911      -0.209686
                                                         0.348157      -0.219794
                                                         0.128212      -0.022789

                          1       2    3s                5.605331       0.552234
                                                         2.113016       0.082072
                                                         0.769911       0.007843
                                                         0.348157       0.136893
                                                         0.128212       0.074283

                          1       3    3px               5.605331      -0.703879
                                                         2.113016      -0.642521
                                                         0.769911      -0.374851
                                                         0.348157      -0.139743
                                                         0.128212      -0.027849
                          1       3    3py               5.605331      -0.703879
                                                         2.113016      -0.642521
                                                         0.769911      -0.374851
                                                         0.348157      -0.139743
                                                         0.128212      -0.027849
                          1       3    3pz               5.605331      -0.703879
                                                         2.113016      -0.642521
                                                         0.769911      -0.374851
                                                         0.348157      -0.139743
                                                         0.128212      -0.027849

                          1       4    4px               5.605331      -0.480376
                                                         2.113016      -0.552894
                                                         0.769911      -0.316145
                                                         0.348157       0.210505
                                                         0.128212       0.076095
                          1       4    4py               5.605331      -0.480376
                                                         2.113016      -0.552894
                                                         0.769911      -0.316145
                                                         0.348157       0.210505
                                                         0.128212       0.076095
                          1       4    4pz               5.605331      -0.480376
                                                         2.113016      -0.552894
                                                         0.769911      -0.316145
                                                         0.348157       0.210505
                                                         0.128212       0.076095

                          1       5    4dx2              5.605331       0.640026
                                                         2.113016       0.274300
                                                         0.769911       0.446711
                                                         0.348157       0.028674
                                                         0.128212       0.029790
                          1       5    4dxy              5.605331       1.108557
                                                         2.113016       0.475102
                                                         0.769911       0.773726
                                                         0.348157       0.049666
                                                         0.128212       0.051599
                          1       5    4dxz              5.605331       1.108557
                                                         2.113016       0.475102
                                                         0.769911       0.773726
                                                         0.348157       0.049666
                                                         0.128212       0.051599
                          1       5    4dy2              5.605331       0.640026
                                                         2.113016       0.274300
                                                         0.769911       0.446711
                                                         0.348157       0.028674
                                                         0.128212       0.029790
                          1       5    4dyz              5.605331       1.108557
                                                         2.113016       0.475102
                                                         0.769911       0.773726
                                                         0.348157       0.049666
                                                         0.128212       0.051599
                          1       5    4dz2              5.605331       0.640026
                                                         2.113016       0.274300
                                                         0.769911       0.446711
                                                         0.348157       0.028674
                                                         0.128212       0.029790

     GTH Potential information for                                       GTH-PBE

       Description:                       Goedecker-Teter-Hutter pseudopotential
                                           Goedecker et al., PRB 54, 1703 (1996)
                                          Hartwigsen et al., PRB 58, 3641 (1998)
                                                      Krack, TCA 114, 145 (2005)

       Gaussian exponent of the core charge distribution:               4.364419
       Electronic configuration (s p d ...):                               2   2

       Parameters of the local part of the GTH pseudopotential:

                          rloc        C1          C2          C3          C4
                        0.338471   -8.803674    1.339211

       Parameters of the non-local part of the GTH pseudopotential:

                   l      r(l)      h(i,j,l)

                   0    0.302576    9.622487
                   1    0.291507


 MOLECULE KIND INFORMATION


 All atoms are their own molecule, skipping detailed information


 TOTAL NUMBERS AND MAXIMUM NUMBERS

  Total number of            - Atomic kinds:                                   2
                             - Atoms:                                          3
                             - Shell sets:                                     3
                             - Shells:                                        15
                             - Primitive Cartesian functions:                 15
                             - Cartesian basis functions:                     42
                             - Spherical basis functions:                     39

  Maximum angular momentum of- Orbital basis functions:                        2
                             - Local part of the GTH pseudopotential:          2
                             - Non-local part of the GTH pseudopotential:      0


 MODULE QUICKSTEP:  ATOMIC COORDINATES IN angstrom

  Atom  Kind  Element       X           Y           Z          Z(eff)       Mass

       1     1 O    8    7.891894    7.192346    9.047571      6.00      15.9994
       2     2 C    6    8.304738    7.547036    8.002966      4.00      12.0107
       3     1 O    8    8.743152    7.888383    6.964402      6.00      15.9994




 SCF PARAMETERS         Density guess:                                    ATOMIC
                        --------------------------------------------------------
                        max_scf:                                              50
                        max_scf_history:                                       0
                        max_diis:                                              4
                        --------------------------------------------------------
                        eps_scf:                                        1.00E-06
                        eps_scf_history:                                0.00E+00
                        eps_diis:                                       1.00E-01
                        eps_eigval:                                     1.00E-05
                        --------------------------------------------------------
                        level_shift [a.u.]:                                 0.00
                        --------------------------------------------------------
                        Outer loop SCF in use 
                        No variables optimised in outer loop
                        eps_scf                                         1.00E-06
                        max_scf                                               10
                        No outer loop optimization
                        step_size                                       5.00E-01

 PW_GRID| Information for grid number                                          1
 PW_GRID| Grid distributed over                                    25 processors
 PW_GRID| Real space group dimensions                                    25    1
 PW_GRID| the grid is blocked:                                                NO
 PW_GRID| Cutoff [a.u.]                                                    200.0
 PW_GRID| spherical cutoff:                                                   NO
 PW_GRID|   Bounds   1            -96      95                Points:         192
 PW_GRID|   Bounds   2            -96      95                Points:         192
 PW_GRID|   Bounds   3            -96      95                Points:         192
 PW_GRID| Volume element (a.u.^3)  0.3218E-02     Volume (a.u.^3)     22775.6292
 PW_GRID| Grid span                                                    FULLSPACE
 PW_GRID|   Distribution                         Average         Max         Min
 PW_GRID|   G-Vectors                           283115.5      283200      283008
 PW_GRID|   G-Rays                                1474.6        1475        1474
 PW_GRID|   Real Space Points                   283115.5      294912      258048

 PW_GRID| Information for grid number                                          2
 PW_GRID| Grid distributed over                                    25 processors
 PW_GRID| Real space group dimensions                                    25    1
 PW_GRID| the grid is blocked:                                                NO
 PW_GRID| Cutoff [a.u.]                                                     66.7
 PW_GRID| spherical cutoff:                                                   NO
 PW_GRID|   Bounds   1            -54      53                Points:         108
 PW_GRID|   Bounds   2            -54      53                Points:         108
 PW_GRID|   Bounds   3            -54      53                Points:         108
 PW_GRID| Volume element (a.u.^3)  0.1808E-01     Volume (a.u.^3)     22775.6292
 PW_GRID| Grid span                                                    FULLSPACE
 PW_GRID|   Distribution                         Average         Max         Min
 PW_GRID|   G-Vectors                            50388.5       50544       50220
 PW_GRID|   G-Rays                                 466.6         468         465
 PW_GRID|   Real Space Points                    50388.5       58320       46656

 PW_GRID| Information for grid number                                          3
 PW_GRID| Grid distributed over                                    25 processors
 PW_GRID| Real space group dimensions                                    25    1
 PW_GRID| the grid is blocked:                                                NO
 PW_GRID| Cutoff [a.u.]                                                     22.2
 PW_GRID| spherical cutoff:                                                   NO
 PW_GRID|   Bounds   1            -32      31                Points:          64
 PW_GRID|   Bounds   2            -32      31                Points:          64
 PW_GRID|   Bounds   3            -32      31                Points:          64
 PW_GRID| Volume element (a.u.^3)  0.8688E-01     Volume (a.u.^3)     22775.6292
 PW_GRID| Grid span                                                    FULLSPACE
 PW_GRID|   Distribution                         Average         Max         Min
 PW_GRID|   G-Vectors                            10485.8       10560       10432
 PW_GRID|   G-Rays                                 163.8         165         163
 PW_GRID|   Real Space Points                    10485.8       12288        8192

 PW_GRID| Information for grid number                                          4
 PW_GRID| Grid distributed over                                    25 processors
 PW_GRID| Real space group dimensions                                    25    1
 PW_GRID| the grid is blocked:                                                NO
 PW_GRID| Cutoff [a.u.]                                                      7.4
 PW_GRID| spherical cutoff:                                                   NO
 PW_GRID|   Bounds   1            -18      17                Points:          36
 PW_GRID|   Bounds   2            -18      17                Points:          36
 PW_GRID|   Bounds   3            -18      17                Points:          36
 PW_GRID| Volume element (a.u.^3)  0.4882         Volume (a.u.^3)     22775.6292
 PW_GRID| Grid span                                                    FULLSPACE
 PW_GRID|   Distribution                         Average         Max         Min
 PW_GRID|   G-Vectors                             1866.2        1908        1836
 PW_GRID|   G-Rays                                  51.8          53          51
 PW_GRID|   Real Space Points                     1866.2        2592        1296

 POISSON| Solver                                                        PERIODIC
 POISSON| Periodicity                                                        XYZ

 RS_GRID| Information for grid number                                          1
 RS_GRID|   Bounds   1            -96      95                Points:         192
 RS_GRID|   Bounds   2            -96      95                Points:         192
 RS_GRID|   Bounds   3            -96      95                Points:         192
 RS_GRID| Real space distribution over                                  5 groups
 RS_GRID| Real space distribution along direction                              2
 RS_GRID| Border size                                                         24
 RS_GRID| Real space distribution over                                  5 groups
 RS_GRID| Real space distribution along direction                              3
 RS_GRID| Border size                                                         24
 RS_GRID|   Distribution                         Average         Max         Min
 RS_GRID|   Planes                                  86.4          87          86
 RS_GRID|   Distribution                         Average         Max         Min
 RS_GRID|   Planes                                  86.4          87          86

 RS_GRID| Information for grid number                                          2
 RS_GRID|   Bounds   1            -54      53                Points:         108
 RS_GRID|   Bounds   2            -54      53                Points:         108
 RS_GRID|   Bounds   3            -54      53                Points:         108
 RS_GRID| Real space distribution over                                  5 groups
 RS_GRID| Real space distribution along direction                              2
 RS_GRID| Border size                                                         25
 RS_GRID| Real space distribution over                                  5 groups
 RS_GRID| Real space distribution along direction                              3
 RS_GRID| Border size                                                         25
 RS_GRID|   Distribution                         Average         Max         Min
 RS_GRID|   Planes                                  71.6          72          71
 RS_GRID|   Distribution                         Average         Max         Min
 RS_GRID|   Planes                                  71.6          72          71

 RS_GRID| Information for grid number                                          3
 RS_GRID|   Bounds   1            -32      31                Points:          64
 RS_GRID|   Bounds   2            -32      31                Points:          64
 RS_GRID|   Bounds   3            -32      31                Points:          64
 RS_GRID| Real space fully replicated
 RS_GRID| Group size                                                           1

 RS_GRID| Information for grid number                                          4
 RS_GRID|   Bounds   1            -18      17                Points:          36
 RS_GRID|   Bounds   2            -18      17                Points:          36
 RS_GRID|   Bounds   3            -18      17                Points:          36
 RS_GRID| Real space fully replicated
 RS_GRID| Group size                                                           1

 DISTRIBUTION OF THE PARTICLES (ROWS)
              Process row      Number of particles         Number of matrix rows
                        0                        1                            -1
                        1                        1                            -1
                        2                        0                            -1
                        3                        1                            -1
                        4                        0                            -1
                      Sum                        3                            -1

 DISTRIBUTION OF THE PARTICLES (COLUMNS)
              Process col      Number of particles      Number of matrix columns
                        0                        1                            -1
                        1                        1                            -1
                        2                        0                            -1
                        3                        1                            -1
                        4                        0                            -1
                      Sum                        3                            -1

 DISTRIBUTION OF THE NEIGHBOR LISTS
              Total number of particle pairs:                                  6
              Total number of matrix elements:                              1014
              Average number of particle pairs:                                1
              Maximum number of particle pairs:                                1
              Average number of matrix element:                               41
              Maximum number of matrix elements:                             169


 DISTRIBUTION OF THE OVERLAP MATRIX
              Number  of non-zero blocks:                                      6
              Percentage non-zero blocks:                                 100.00
              Average number of blocks per CPU:                                1
              Maximum number of blocks per CPU:                                1
              Average number of matrix elements per CPU:                      43
              Maximum number of matrix elements per CPU:                     179

 Number of electrons:                                                         16
 Number of occupied orbitals:                                                  8
 Number of molecular orbitals:                                                 8

 Number of orbital functions:                                                 39
 Number of independent orbital functions:                                     39

 Extrapolation method: initial_guess

 Atomic guess: The first density matrix is obtained in terms of atomic orbitals
               and electronic configurations assigned to each atomic kind

 Guess for atomic kind: O

 Electronic structure
    Total number of core electrons                                          2.00
    Total number of valence electrons                                       6.00
    Total number of electrons                                               8.00
    Multiplicity                                                   not specified
    S   [  2.00] 2.00
    P      4.00
 

 *******************************************************************************
                  Iteration          Convergence                     Energy [au]
 *******************************************************************************
                          1         1.67054                     -14.836051221656
                          2         2.12470                     -14.897900780399
                          3        0.100150                     -15.654295189160
                          4        0.189307E-01                 -15.655828842238
                          5        0.464435E-02                 -15.655882433232
                          6        0.259395E-02                 -15.655884790195
                          7        0.516014E-04                 -15.655885857622
                          8        0.157374E-05                 -15.655885858066
                          9        0.783512E-06                 -15.655885858066

 Energy components [Hartree]           Total Energy ::          -15.655885858066
                                        Band Energy ::           -2.983129541149
                                     Kinetic Energy ::           11.754767937471
                                   Potential Energy ::          -27.410653795537
                                      Virial (-V/T) ::            2.331875366774
                                        Core Energy ::          -26.153524299614
                                          XC Energy ::           -3.157392735430
                                     Coulomb Energy ::           13.655031176977
                       Total Pseudopotential Energy ::          -37.943031004163
                       Local Pseudopotential Energy ::          -39.220423834999
                    Nonlocal Pseudopotential Energy ::            1.277392830837
                                        Confinement ::            0.347387670777

 Orbital energies  State     L     Occupation   Energy[a.u.]          Energy[eV]

                       1     0          2.000      -0.861523          -23.443221
 
                       1     1          4.000      -0.315021           -8.572160
 

 Total Electron Density at R=0:                                         0.000093

 Guess for atomic kind: C

 Electronic structure
    Total number of core electrons                                          2.00
    Total number of valence electrons                                       4.00
    Total number of electrons                                               6.00
    Multiplicity                                                   not specified
    S   [  2.00] 2.00
    P      2.00
 

 *******************************************************************************
                  Iteration          Convergence                     Energy [au]
 *******************************************************************************
                          1        0.457038                      -5.151105664215
                          2        0.157450                      -5.235617431356
                          3        0.130137E-02                  -5.246564342251
                          4        0.531061E-03                  -5.246565033610
                          5        0.605965E-04                  -5.246565167704
                          6        0.323545E-04                  -5.246565168968
                          7        0.365472E-07                  -5.246565169473

 Energy components [Hartree]           Total Energy ::           -5.246565169473
                                        Band Energy ::           -1.058732656762
                                     Kinetic Energy ::            3.518928154187
                                   Potential Energy ::           -8.765493323660
                                      Virial (-V/T) ::            2.490955467002
                                        Core Energy ::           -8.429377161979
                                          XC Energy ::           -1.450183339326
                                     Coulomb Energy ::            4.632995331832
                       Total Pseudopotential Energy ::          -11.978048785149
                       Local Pseudopotential Energy ::          -12.816738149676
                    Nonlocal Pseudopotential Energy ::            0.838689364526
                                        Confinement ::            0.297434689834

 Orbital energies  State     L     Occupation   Energy[a.u.]          Energy[eV]

                       1     0          2.000      -0.410911          -11.181458
 
                       1     1          2.000      -0.118455           -3.223332
 

 Total Electron Density at R=0:                                         0.001337
 Re-scaling the density matrix to get the right number of electrons
                  # Electrons              Trace(P)               Scaling factor
                           16                16.000                        1.000


 SCF WAVEFUNCTION OPTIMIZATION

  ----------------------------------- OT ---------------------------------------
  Minimizer      : DIIS                : direct inversion
                                         in the iterative subspace
                                         using   7 DIIS vectors
                                         safer DIIS on
  Preconditioner : FULL_ALL            : diagonalization, state selective
  Precond_solver : DEFAULT
  stepsize       :    0.15000000                  energy_gap     :    0.08000000
  eps_taylor     :   0.10000E-15                  max_taylor     :             4
  ----------------------------------- OT ---------------------------------------

  Step     Update method      Time    Convergence         Total energy    Change
  ------------------------------------------------------------------------------
     1 OT DIIS     0.15E+00    0.5     0.17107143       -36.1435424143 -3.61E+01
     2 OT DIIS     0.15E+00    0.6     0.27179507       -36.5742153770 -4.31E-01
     3 OT DIIS     0.15E+00    0.5     0.24431896       -36.7409173284 -1.67E-01
     4 OT DIIS     0.15E+00    0.6     0.16350430       -37.2243025965 -4.83E-01
     5 OT DIIS     0.15E+00    0.6     0.14712068       -37.3796924427 -1.55E-01
     6 OT DIIS     0.15E+00    0.5     0.19525003       -37.4887436778 -1.09E-01
     7 OT DIIS     0.15E+00    0.5     0.11864015       -37.6283444234 -1.40E-01
     8 OT DIIS     0.15E+00    0.5     0.10019443       -37.6253112136  3.03E-03
     9 OT DIIS     0.15E+00    0.5     0.10593587       -37.6621543736 -3.68E-02
    10 OT DIIS     0.15E+00    0.6     0.03934862       -37.7425131647 -8.04E-02
    11 OT DIIS     0.15E+00    0.6     0.02566513       -37.7544503457 -1.19E-02
    12 OT DIIS     0.15E+00    0.5     0.00851729       -37.7601823972 -5.73E-03
    13 OT DIIS     0.15E+00    0.5     0.00450730       -37.7613733619 -1.19E-03
    14 OT DIIS     0.15E+00    0.5     0.00280266       -37.7616275909 -2.54E-04
    15 OT DIIS     0.15E+00    0.5     0.00112264       -37.7617320069 -1.04E-04
    16 OT DIIS     0.15E+00    0.5     0.00047657       -37.7617623437 -3.03E-05
    17 OT DIIS     0.15E+00    0.5     0.00032860       -37.7617670133 -4.67E-06
    18 OT DIIS     0.15E+00    0.5     0.00022846       -37.7617685529 -1.54E-06
    19 OT DIIS     0.15E+00    0.6     0.00015262       -37.7617689316 -3.79E-07
    20 OT DIIS     0.15E+00    0.5     0.00009824       -37.7617692519 -3.20E-07
    21 OT DIIS     0.15E+00    0.6     0.00007485       -37.7617693090 -5.71E-08
    22 OT DIIS     0.15E+00    0.5     0.00003626       -37.7617693769 -6.79E-08
    23 OT DIIS     0.15E+00    0.5     0.00002750       -37.7617693947 -1.78E-08
    24 OT DIIS     0.15E+00    0.5     0.00001138       -37.7617694046 -9.99E-09
    25 OT DIIS     0.15E+00    0.5     0.00000817       -37.7617694076 -2.95E-09
    26 OT DIIS     0.15E+00    0.5     0.00000594       -37.7617694088 -1.24E-09
    27 OT DIIS     0.15E+00    0.5     0.00000623       -37.7617694092 -3.27E-10
    28 OT DIIS     0.15E+00    0.5     0.00000295       -37.7617694095 -3.44E-10
    29 OT DIIS     0.15E+00    0.5     0.00000296       -37.7617694096 -6.56E-11
    30 OT DIIS     0.15E+00    0.5     0.00000133       -37.7617694096 -7.25E-11
    31 OT DIIS     0.15E+00    0.5     0.00000117       -37.7617694097 -2.56E-11
    32 OT DIIS     0.15E+00    0.5     0.00000079       -37.7617694097 -1.18E-11

  *** SCF run converged in    32 steps ***


  Electronic density on regular grids:        -15.9999999994        0.0000000006
  Core density on regular grids:               15.9999999994       -0.0000000006
  Total charge density on r-space grids:        0.0000000000
  Total charge density g-space grids:           0.0000000000

  Overlap energy of the core charge distribution:               0.00000211276849
  Self energy of the core charge distribution:                -96.38742208476295
  Core Hamiltonian energy:                                     27.67959316100621
  Hartree energy:                                              39.59173878410785
  Exchange-correlation energy:                                 -8.64474499001694
  Dispersion energy:                                           -0.00093639277955

  Total energy:                                               -37.76176940967688

  outer SCF iter =    1 RMS gradient =   0.79E-06 energy =        -37.7617694097
  outer SCF loop converged in   1 iterations or   32 steps


 ENERGY| Total FORCE_EVAL ( QS ) energy (a.u.):              -37.761769409676880


 -------------------------------------------------------------------------------
 -                                                                             -
 -                                DBCSR STATISTICS                             -
 -                                                                             -
 -------------------------------------------------------------------------------
 COUNTER                                    TOTAL       BLAS       SMM       ACC
 flops     8 x     8 x     8               288768     100.0%      0.0%      0.0%
 flops    13 x    13 x     8               535392     100.0%      0.0%      0.0%
 flops     8 x     8 x    13               643968     100.0%      0.0%      0.0%
 flops    13 x     8 x     8               803712     100.0%      0.0%      0.0%
 flops    13 x     8 x    13              3358368     100.0%      0.0%      0.0%
 flops inhomo. stacks                           0       0.0%      0.0%      0.0%
 flops total                         5.630208E+06     100.0%      0.0%      0.0%
 flops max/rank                      2.409328E+06     100.0%      0.0%      0.0%
 matmuls inhomo. stacks                         0       0.0%      0.0%      0.0%
 matmuls total                               2592     100.0%      0.0%      0.0%
 number of processed stacks                  2592     100.0%      0.0%      0.0%
 average stack size                                     1.0       0.0       0.0
 marketing flops                     5.902894E+06
 -------------------------------------------------------------------------------
 # multiplications                            744
 max memory usage/rank             243.474432E+06
 # max total images/rank                        1
 # max 3D layers                                1
 # MPI messages exchanged                  148800
 MPI messages size (bytes):
  total size                        14.421568E+06
  min size                           0.000000E+00
  max size                           1.352000E+03
  average size                      96.919136E+00
 MPI breakdown and total messages size (bytes):
             size <=      128              133456                        0
       128 < size <=     8192               15344                 14421568
      8192 < size <=    32768                   0                        0
     32768 < size <=   131072                   0                        0
    131072 < size <=  4194304                   0                        0
   4194304 < size <= 16777216                   0                        0
  16777216 < size                               0                        0
 -------------------------------------------------------------------------------
 
 MEMORY| Estimated peak process memory [MiB]                                 233

 -------------------------------------------------------------------------------
 ----                             MULTIGRID INFO                            ----
 -------------------------------------------------------------------------------
 count for grid        1:         144085          cutoff [a.u.]          200.00
 count for grid        2:          71038          cutoff [a.u.]           66.67
 count for grid        3:          31518          cutoff [a.u.]           22.22
 count for grid        4:           8503          cutoff [a.u.]            7.41
 total gridlevel count  :         255144

 -------------------------------------------------------------------------------
 -                                                                             -
 -                         MESSAGE PASSING PERFORMANCE                         -
 -                                                                             -
 -------------------------------------------------------------------------------

 ROUTINE             CALLS      AVE VOLUME [Bytes]
 MP_Group               53
 MP_Bcast              668                 551901.
 MP_Allreduce         3461                    209.
 MP_Sync                39
 MP_Alltoall          3233                2111339.
 MP_ISendRecv         3120                  59520.
 MP_Wait             49366
 MP_comm_split          35
 MP_ISend            18935                  55564.
 MP_IRecv            18935                  55527.
 MP_Recv                 6                    624.
 MP_Memory           29380
 -------------------------------------------------------------------------------


 -------------------------------------------------------------------------------
 -                                                                             -
 -                           R E F E R E N C E S                               -
 -                                                                             -
 -------------------------------------------------------------------------------
 
 CP2K version 5.1, the CP2K developers group (2017).
 CP2K is freely available from https://www.cp2k.org/ .

 Schuett, Ole; Messmer, Peter; Hutter, Juerg; VandeVondele, Joost. 
 Electronic Structure Calculations on Graphics Processing Units, John Wiley & Sons, Ltd, 173-190 (2016). 
 GPU-Accelerated Sparse Matrix-Matrix Multiplication for Linear Scaling Density Functional Theory.
 http://dx.doi.org/10.1002/9781118670712.ch8


 Borstnik, U; VandeVondele, J; Weber, V; Hutter, J. 
 PARALLEL COMPUTING, 40 (5-6), 47-58 (2014). 
 Sparse matrix multiplication: The distributed block-compressed sparse
 row library.
 http://dx.doi.org/10.1016/j.parco.2014.03.012


 Hutter, J; Iannuzzi, M; Schiffmann, F; VandeVondele, J. 
 WILEY INTERDISCIPLINARY REVIEWS-COMPUTATIONAL MOLECULAR SCIENCE, 4 (1), 15-25 (2014). 
 CP2K: atomistic simulations of condensed matter systems.
 http://dx.doi.org/10.1002/wcms.1159


 Grimme, S; Ehrlich, S; Goerigk, L. 
 JOURNAL OF COMPUTATIONAL CHEMISTRY, 32, 1456 (2011). 
 Effect of the damping function in dispersion corrected density functional theory.
 http://dx.doi.org/10.1002/jcc.21759


 Grimme, S; Antony, J; Ehrlich, S; Krieg, H. 
 JOURNAL OF CHEMICAL PHYSICS, 132 (15), 154104 (2010). 
 A consistent and accurate ab initio parametrization of density
 functional dispersion correction (DFT-D) for the 94 elements H-Pu.
 http://dx.doi.org/10.1063/1.3382344


 VandeVondele, J; Hutter, J. 
 JOURNAL OF CHEMICAL PHYSICS, 127 (11), 114105 (2007). 
 Gaussian basis sets for accurate calculations on molecular systems in
 gas and condensed phases.
 http://dx.doi.org/10.1063/1.2770708


 Krack, M. 
 THEORETICAL CHEMISTRY ACCOUNTS, 114 (1-3), 145-152 (2005). 
 Pseudopotentials for H to Kr optimized for gradient-corrected
 exchange-correlation functionals.
 http://dx.doi.org/10.1007/s00214-005-0655-y


 VandeVondele, J; Krack, M; Mohamed, F; Parrinello, M; Chassaing, T;
 Hutter, J. COMPUTER PHYSICS COMMUNICATIONS, 167 (2), 103-128 (2005). 
 QUICKSTEP: Fast and accurate density functional calculations using a
 mixed Gaussian and plane waves approach.
 http://dx.doi.org/10.1016/j.cpc.2004.12.014


 Frigo, M; Johnson, SG. 
 PROCEEDINGS OF THE IEEE, 93 (2), 216-231 (2005). 
 The design and implementation of FFTW3.
 http://dx.doi.org/10.1109/JPROC.2004.840301


 VandeVondele, J; Hutter, J. 
 JOURNAL OF CHEMICAL PHYSICS, 118 (10), 4365-4369 (2003). 
 An efficient orbital transformation method for electronic structure
 calculations.
 http://dx.doi.org/10.1063/1.1543154


 Hartwigsen, C; Goedecker, S; Hutter, J. 
 PHYSICAL REVIEW B, 58 (7), 3641-3662 (1998). 
 Relativistic separable dual-space Gaussian pseudopotentials from H to Rn.
 http://dx.doi.org/10.1103/PhysRevB.58.3641


 Lippert, G; Hutter, J; Parrinello, M. 
 MOLECULAR PHYSICS, 92 (3), 477-487 (1997). 
 A hybrid Gaussian and plane wave density functional scheme.
 http://dx.doi.org/10.1080/002689797170220


 Perdew, JP; Burke, K; Ernzerhof, M. 
 PHYSICAL REVIEW LETTERS, 77 (18), 3865-3868 (1996). 
 Generalized gradient approximation made simple.
 http://dx.doi.org/10.1103/PhysRevLett.77.3865


 Goedecker, S; Teter, M; Hutter, J. 
 PHYSICAL REVIEW B, 54 (3), 1703-1710 (1996). 
 Separable dual-space Gaussian pseudopotentials.
 http://dx.doi.org/10.1103/PhysRevB.54.1703


 -------------------------------------------------------------------------------
 -                                                                             -
 -                                T I M I N G                                  -
 -                                                                             -
 -------------------------------------------------------------------------------
 SUBROUTINE                       CALLS  ASD         SELF TIME        TOTAL TIME
                                MAXIMUM       AVERAGE  MAXIMUM  AVERAGE  MAXIMUM
 CP2K                                 1  1.0    0.067    0.104   18.566   18.570
 qs_energies                          1  2.0    0.014    0.028   17.993   17.999
 scf_env_do_scf                       1  3.0    0.001    0.002   17.489   17.490
 scf_env_do_scf_inner_loop           32  4.0    0.002    0.003   16.999   16.999
 qs_ks_update_qs_env                 33  5.0    0.002    0.003   13.086   13.091
 rebuild_ks_matrix                   32  6.0    0.000    0.000   13.083   13.087
 qs_ks_build_kohn_sham_matrix        32  7.0    0.013    0.021   13.083   13.087
 pw_transfer                        614  9.6    0.038    0.047   11.854   12.314
 fft_wrap_pw1pw2                    550 10.7    0.004    0.005   11.698   12.159
 fft_wrap_pw1pw2_200                355 11.8    0.724    0.799   11.328   11.781
 fft3d_ps                           550 12.7    5.837    6.687    9.357    9.898
 qs_vxc_create                       32  8.0    0.001    0.005    8.887    9.054
 xc_vxc_pw_create                    32  9.0    0.111    0.117    8.885    9.049
 xc_rho_set_and_dset_create          32 10.0    0.036    0.040    4.017    4.593
 qs_rho_update_rho                   33  5.0    0.000    0.001    3.827    3.829
 calculate_rho_elec                  33  6.0    0.060    0.142    3.827    3.828
 density_rs2pw                       33  7.0    0.002    0.002    3.485    3.603
 mp_alltoall_z22v                   550 14.7    2.116    3.540    2.116    3.540
 sum_up_and_integrate                32  8.0    0.066    0.076    2.535    2.588
 rs_pw_transfer                     261  9.5    0.002    0.002    2.555    2.576
 integrate_v_rspace                  32  9.0    0.017    0.078    2.469    2.526
 yz_to_x                            261 13.1    0.474    0.568    1.748    2.506
 potential_pw2rs                     32 10.0    0.004    0.005    2.438    2.448
 x_to_yz                            289 14.2    0.921    1.008    1.763    2.245
 xc_functional_eval                  32 11.0    0.000    0.000    0.443    1.016
 pbe_lda_eval                        32 12.0    0.442    1.015    0.442    1.015
 pw_scatter_p                       289 13.2    0.781    0.919    0.781    0.919
 rs_pw_transfer_RS2PW_200            34  8.9    0.622    0.671    0.875    0.918
 rs_pw_transfer_PW2RS_200            32 12.0    0.572    0.615    0.846    0.894
 pw_gather_p                        261 12.1    0.802    0.829    0.802    0.829
 mp_waitany                        4059 11.5    0.562    0.691    0.562    0.691
 qs_scf_new_mos                      32  5.0    0.000    0.000    0.632    0.633
 qs_scf_loop_do_ot                   32  6.0    0.001    0.004    0.632    0.633
 mp_sum_d                          1290  7.7    0.316    0.620    0.316    0.620
 ot_scf_mini                         32  7.0    0.002    0.003    0.607    0.608
 dbcsr_multiply_generic             744 10.2    0.021    0.032    0.551    0.579
 pw_derive                          192 10.5    0.470    0.533    0.470    0.533
 init_scf_loop                        1  4.0    0.000    0.003    0.488    0.489
 pw_poisson_solve                    32  8.0    0.265    0.276    0.421    0.423
 pw_copy                            352 10.5    0.352    0.415    0.352    0.415
 -------------------------------------------------------------------------------

 The number of warnings for this run is : 0
 
 -------------------------------------------------------------------------------
  **** **** ******  **  PROGRAM ENDED AT                 2018-10-05 08:20:45.992
 ***** ** ***  *** **   PROGRAM RAN ON                                      g081
 **    ****   ******    PROGRAM RAN BY                                     macer
 ***** **    ** ** **   PROGRAM PROCESS ID                                  9935
  **** **  *******  **  PROGRAM STOPPED IN         /home/macer/H2OCO2 folder/co2
