       8
 i =        1, E =      -118.8514478737
 Cu         5.6714100631        7.6888017835        7.0254693631
  O         6.2944032160        8.5628882642        4.1497279960
  H         6.0997355362        8.4900530802        3.1849486561
  O         5.0387537791        7.3429579220       10.3072229934
  H         5.5127093531        7.2878867650       11.1694654160
  O         8.3661686882        7.2118467581        9.2401132431
  C         8.7585668169        7.4782166479        8.1595699645
  O         9.1285251995        7.7287504317        7.0671005948
       8
 i =        2, E =      -118.2641050907
 Cu         5.6673926254        7.7309255885        6.9647951148
  O         6.3256626208        8.5888831924        4.2258431072
  H         6.0551533732        8.4389388274        3.2865727069
  O         5.0287070084        7.3335425743       10.2548661278
  H         5.5335000535        7.2929048556       11.0923649494
  O         8.3737171459        7.1926380170        9.2091387075
  C         8.7508572742        7.4598705945        8.1439882971
  O         9.1353445049        7.7378405000        7.0835225633
       8
 i =        3, E =      -120.2925527569
 Cu         5.6660262607        7.8068525961        6.8541370458
  O         6.3987430560        8.6544508888        4.3746954185
  H         5.9553210117        8.3276579888        3.4615486074
  O         4.9975186577        7.3066661551       10.1587409517
  H         5.5873451942        7.3045057644       10.9548384696
  O         8.4103232068        7.1415156050        9.1964689679
  C         8.7745876591        7.4184506683        8.1265361334
  O         9.0754348663        7.7782969118        7.0640923592
       8
 i =        4, E =      -118.7306297740
 Cu         5.6758194513        7.8106017319        6.8443696676
  O         6.4053848711        8.6504958364        4.4514887503
  H         5.9448508517        8.3287296831        3.4017477327
  O         4.9735082219        7.3091236530       10.1121206826
  H         5.6124553430        7.3005984962       10.9942431422
  O         8.3426099915        7.1220896223        9.3869599192
  C         8.7912365273        7.3800218683        8.1832352110
  O         9.1192489082        7.8349721927        6.8140923592
       8
 i =        5, E =      -118.7670953995
 Cu         5.6743199677        7.9113262100        6.6973833444
  O         6.4956797920        8.7328272770        4.6308689816
  H         5.8189307394        8.1856595438        3.6517477327
  O         4.9400859647        7.2731499040        9.9960915276
  H         5.6756237676        7.3165030243       10.8009938197
  O         8.4054668565        7.0690703581        9.3195083619
  C         8.8257033208        7.3286495185        8.1458864665
  O         9.0229187284        7.8703189295        6.8528844000
       8
 i =        6, E =      -118.8386628695
 Cu         5.6935238230        8.0345706064        6.5024618868
  O         6.5020629399        8.7500576773        4.8394932103
  H         5.7469751534        8.0900524662        3.9017477327
  O         4.9135752401        7.2437518769        9.8842842861
  H         5.7238941400        7.3234545250       10.6152597783
  O         8.5230103184        6.9621690297        9.2605991627
  C         8.7871510380        7.3834476228        8.0971833098
  O         8.9360261331        7.8681807362        6.9080022480
       8
 i =        7, E =      -118.8312321646
 Cu         5.7224988693        8.1552344800        6.2966266728
  O         6.4260138359        8.6920458814        5.0811630013
  H         5.7204519494        8.0416705757        4.1517477327
  O         4.9594143288        7.2533160938        9.7475706059
  H         5.7370987121        7.3144184555       10.4458156469
  O         8.6279203376        6.8516095725        9.2029964979
  C         8.7745738732        7.3763011487        8.0382421122
  O         8.8316848199        7.9216958584        6.9846776488
       8
 i =        8, E =      -118.8354370622
 Cu         5.6214579069        7.9971714534        6.5466266728
  O         6.3267645569        8.5924556195        4.8576399347
  H         5.9041798494        8.2364409047        3.9142895246
  O         5.0924738638        7.3522367866        9.8269512446
  H         5.6342401101        7.2762407050       10.5902211461
  O         8.7062094793        6.7874062828        9.1997392614
  C         8.7010213286        7.4861904000        8.0137340016
  O         8.8305198794        7.9235738901        7.0938793542
       8
 i =        9, E =      -118.8412718120
 Cu         5.5514930084        7.8903085213        6.6747898043
  O         6.2814201631        8.5393616053        4.6653674797
  H         6.0556511067        8.4003795603        3.6956944146
  O         5.0321626257        7.3723176102        9.9453968425
  H         5.6227778896        7.2655201485       10.7406889774
  O         8.5796686701        6.8627867868        9.2595320181
  C         8.8688153318        7.3207060054        8.1384866394
  O         8.8193034219        8.0885158529        6.9801372609
       8
 i =       10, E =      -118.9101255932
 Cu         5.5586293331        7.9428729191        6.5619361024
  O         6.3654829647        8.5995103255        4.8111090475
  H         5.9368951491        8.2854123247        3.8714752312
  O         5.0087825161        7.3413300711        9.8512252174
  H         5.6667733819        7.2789843035       10.6210724327
  O         8.5797469874        6.9247276379        9.2415025759
  C         8.8079891690        7.3743906537        8.1134257010
  O         8.8662075063        7.9446562179        6.9952490735
       8
 i =       11, E =      -118.9270126156
 Cu         5.5442521948        7.9977022220        6.4298006868
  O         6.3887853744        8.5960938048        4.9992116031
  H         5.8696947259        8.2160834739        4.1214752312
  O         5.0034426688        7.3194738490        9.7021842976
  H         5.7056437082        7.3032075170       10.4289427105
  O         8.6437567505        6.9167708807        9.1910229674
  C         8.7618486576        7.4192262325        8.0625229338
  O         8.8409270263        7.8868231008        7.0705373419
       8
 i =       12, E =      -118.9423014130
 Cu         5.5252413996        7.9668206582        6.4946221958
  O         6.3574860641        8.5623127974        4.9442416170
  H         5.9330365093        8.2735907161        4.0590544666
  O         5.0226848995        7.3415671623        9.7148023265
  H         5.6807481394        7.2998522337       10.4621520222
  O         8.6456893165        6.9076419247        9.2092310987
  C         8.7936141641        7.4157323936        8.0997313323
  O         8.8194480492        7.9180747225        7.0378885007
       8
 i =       13, E =      -118.9491136270
 Cu         5.5014655725        7.9684543262        6.4929502039
  O         6.3349950038        8.5628049102        4.9869020218
  H         5.9409282368        8.2701486778        4.1199916160
  O         5.0172131202        7.3499706035        9.6503816071
  H         5.6825710708        7.3036219023       10.3884291827
  O         8.6746713769        6.9186024891        9.2077828126
  C         8.7977707585        7.3921186678        8.1031157266
  O         8.8075947611        7.9111088036        7.0471166736
       8
 i =       14, E =      -118.9595974121
 Cu         5.4822473454        7.9703852429        6.5243147916
  O         6.2935485885        8.5886146895        5.1154878260
  H         5.9335196328        8.2443572927        4.2868820140
  O         5.0080937009        7.3678298128        9.4859501757
  H         5.6779941419        7.3087123599       10.2043446421
  O         8.7051569611        6.9360320534        9.1960617969
  C         8.8116131425        7.3854944630        8.1269832915
  O         8.8017263739        7.8617690557        7.0500368032
       8
 i =       15, E =      -118.9711332947
 Cu         5.4783958685        7.9686829527        6.6365285799
  O         6.2464051756        8.6054918840        5.2425247510
  H         5.9249499887        8.2235995372        4.4505978555
  O         5.0098574791        7.3752043411        9.2652081407
  H         5.6614747184        7.3232471202        9.9834576806
  O         8.7758443924        6.9666238663        9.2121969044
  C         8.7630337570        7.3594106495        8.1268284406
  O         8.8189062545        7.8370737842        7.0544997828
       8
 i =       16, E =      -118.9895529740
 Cu         5.4748049085        7.9672610577        6.7675634185
  O         6.1930412600        8.6256162624        5.3846034801
  H         5.9140086305        8.1949528865        4.6318301587
  O         5.0108436676        7.3852750552        9.0152081407
  H         5.6440662283        7.3404972840        9.7336597291
  O         8.8492665081        6.9968967144        9.2272354842
  C         8.7162828312        7.3326096689        8.1293963610
  O         8.8356891227        7.8045565148        7.0573626882
       8
 i =       17, E =      -119.0218776658
 Cu         5.4751203705        7.9597997531        6.9185504658
  O         6.0934542650        8.7025351148        5.5122474259
  H         5.9210236181        8.1379974310        4.7809326828
  O         5.0337670268        7.4057962762        8.7652081407
  H         5.6152739909        7.3643396078        9.5124709728
  O         8.9008885127        7.0796114343        9.2299535489
  C         8.6810093834        7.3215961905        8.1305645371
  O         8.8444582674        7.8160226590        7.0671812981
       8
 i =       18, E =      -119.0079297294
 Cu         5.4751297140        7.9528067109        7.0691098129
  O         5.9927484954        8.7709196887        5.6382844265
  H         5.9313139134        8.0871717073        4.9305403603
  O         5.0586242728        7.4267974206        8.5152081407
  H         5.5868936186        7.3897642888        9.2928749729
  O         8.9583920666        7.1568109355        9.2343966540
  C         8.6482301698        7.3163323593        8.1336163311
  O         8.8483174887        7.8221089643        7.0739747799
       8
 i =       19, E =      -119.0348343698
 Cu         5.5015440217        7.9923413828        6.9844740866
  O         6.0485867015        8.7548064331        5.5165466997
  H         5.9331442920        8.1181331335        4.7924058763
  O         5.0201256756        7.3586113668        8.7051741212
  H         5.6063456153        7.3923157199        9.4631237867
  O         8.9235713205        7.1394659357        9.2375343096
  C         8.6773396271        7.3623788589        8.1322482110
  O         8.8315636338        7.8294880720        7.0540758296
       8
 i =       20, E =      -119.0408364808
 Cu         5.5015728099        8.0290725083        7.0152111822
  O         6.0509202233        8.7544233291        5.5265794427
  H         5.9086566840        8.1359527980        4.8148047694
  O         5.0183587276        7.2998388449        8.6660950903
  H         5.5974288121        7.4197269776        9.4302471320
  O         8.9054288569        7.1510683454        9.2234848375
  C         8.6949152957        7.3980446706        8.1376305884
  O         8.8215865482        7.8380013343        7.0458523058
       8
 i =       21, E =      -119.0499936817
 Cu         5.5115944568        8.1238301242        7.1178444872
  O         6.0326708029        8.7985417136        5.5612280266
  H         5.8346462082        8.1412033380        4.8767488305
  O         5.0488770300        7.1000754232        8.5341994510
  H         5.5330444051        7.5294916660        9.3442409293
  O         8.9447027185        7.2286270478        9.2288612521
  C         8.6996567585        7.5043041187        8.1164475778
  O         8.7592877327        7.8450974972        6.9761242213
       8
 i =       22, E =      -119.0571295360
 Cu         5.4833925393        8.1137284452        7.1077668823
  O         6.0179137852        8.8281404764        5.5671755741
  H         5.8162897643        8.1508758962        4.8875723960
  O         5.1194033130        7.1658115944        8.5157180787
  H         5.4831515000        7.4710636165        9.3379253160
  O         8.9468461541        7.2377659911        9.2174822228
  C         8.7422356065        7.5600763431        8.1157484001
  O         8.7013576686        7.8645153855        6.9578462005
       8
 i =       23, E =      -119.0604719358
 Cu         5.4812291733        8.1099598214        7.0906929212
  O         6.0126823395        8.8292423941        5.5449167383
  H         5.8134671403        8.1643142594        4.8565615560
  O         5.1467109274        7.1550159660        8.5309478026
  H         5.4720033683        7.4935408788        9.3828057802
  O         8.9284392954        7.2383471788        9.2073326420
  C         8.7604760734        7.5626758024        8.1027715908
  O         8.6870929413        7.8960401213        6.9710089773
       8
 i =       24, E =      -119.0614192396
 Cu         5.4897641808        8.1046147584        7.0733982009
  O         6.0153505758        8.8285347530        5.5337783499
  H         5.7947766785        8.1871286836        4.8382917442
  O         5.1829303098        7.1435014266        8.5268398596
  H         5.4569596276        7.5137674727        9.3977650454
  O         8.9067299927        7.2496809346        9.2032781484
  C         8.7696894150        7.5791342893        8.0871691785
  O         8.6467875586        7.9131000424        6.9660598064
       8
 i =       25, E =      -119.0621084910
 Cu         5.5137635344        8.0874977882        7.0727229169
  O         6.0037352654        8.8275090813        5.5318446584
  H         5.7958965229        8.1955827785        4.8272036923
  O         5.1659879709        7.1479788942        8.5378209053
  H         5.4662447294        7.5125731254        9.3882648187
  O         8.9037707857        7.2623220723        9.2111059144
  C         8.7727641856        7.5750418337        8.0847524798
  O         8.6493410811        7.9041110607        6.9659139496
       8
 i =       26, E =      -119.0623802279
 Cu         5.5247810375        8.0734295381        7.0692123731
  O         5.9953633397        8.8378051723        5.5455601539
  H         5.7975647260        8.1996338629        4.8333205641
  O         5.1505623756        7.1370351136        8.5263376935
  H         5.4658014757        7.5281173124        9.3652821290
  O         8.9091723775        7.2857046072        9.2210338878
  C         8.7885566217        7.5801133335        8.0890028977
  O         8.6624780158        7.8795011518        6.9558117726
       8
 i =       27, E =      -119.0626129845
 Cu         5.5173094940        8.0694615671        7.0689015123
  O         6.0006533527        8.8254558577        5.5460142672
  H         5.7985040646        8.2073293943        4.8292662646
  O         5.1543360291        7.1338040360        8.5256255945
  H         5.4665883554        7.5274077309        9.3635297713
  O         8.9106706635        7.2753449131        9.2205635376
  C         8.7919760059        7.5764268979        8.0888709268
  O         8.6769982600        7.8782358126        6.9581743202
       8
 i =       28, E =      -119.0627635591
 Cu         5.5071950291        8.0749613358        7.0682845237
  O         5.9996767567        8.8294758898        5.5448545019
  H         5.8049027872        8.2135782054        4.8228564147
  O         5.1699600904        7.1191847944        8.5205387312
  H         5.4613007465        7.5252555701        9.3622243637
  O         8.9079210956        7.2640271851        9.2149186548
  C         8.7979696148        7.5815736511        8.0865361972
  O         8.6766513909        7.8897550309        6.9595681506
       8
 i =       29, E =      -119.0628745773
 Cu         5.5089038326        8.0723976727        7.0673867931
  O         6.0000408347        8.8322044468        5.5456371197
  H         5.8128641769        8.2180158954        4.8182068259
  O         5.1644435160        7.1147789305        8.5200095943
  H         5.4597240200        7.5241052476        9.3556043257
  O         8.9075765400        7.2675995164        9.2171682385
  C         8.8007832319        7.5799061182        8.0865988996
  O         8.6787870653        7.8869693381        6.9583459389
       8
 i =       30, E =      -119.0629750123
 Cu         5.5107548294        8.0642347973        7.0641948130
  O         6.0049687699        8.8342202338        5.5469024125
  H         5.8318493233        8.2266172204        4.8082826394
  O         5.1551325909        7.1129144940        8.5185838239
  H         5.4534374110        7.5241752628        9.3470141050
  O         8.9053534478        7.2668232279        9.2187184866
  C         8.8006343774        7.5739835522        8.0864833598
  O         8.6791489037        7.8866718526        6.9588709597
       8
 i =       31, E =      -119.0630319867
 Cu         5.5139130877        8.0559399484        7.0627852752
  O         6.0095190736        8.8342458240        5.5478913415
  H         5.8469142075        8.2367955616        4.7968296959
  O         5.1568000750        7.1058900753        8.5140399895
  H         5.4451518119        7.5289468002        9.3422114870
  O         8.9037180015        7.2686621581        9.2194553135
  C         8.8018196196        7.5726448169        8.0853772356
  O         8.6795182922        7.8867974811        6.9572164654
       8
 i =       32, E =      -119.0631281453
 Cu         5.5155786261        8.0409482171        7.0559225461
  O         6.0157637481        8.8313389876        5.5482443606
  H         5.8683177206        8.2485558785        4.7789300248
  O         5.1593294535        7.1102717769        8.5163562428
  H         5.4365638569        7.5378714095        9.3458324858
  O         8.9013031772        7.2660811128        9.2191215921
  C         8.7998445878        7.5680455693        8.0848492757
  O         8.6801209714        7.8864331492        6.9571214464
       8
 i =       33, E =      -119.0629900740
 Cu         5.5180865979        7.9891877303        7.0391338130
  O         6.0191234333        8.8229004377        5.5517274238
  H         5.9104755824        8.2825428636        4.7367513618
  O         5.1591685831        7.1111890766        8.5218916710
  H         5.4149023531        7.5642193804        9.3499207150
  O         8.8974744700        7.2598412532        9.2173628534
  C         8.7987032104        7.5628839461        8.0838169308
  O         8.6820646132        7.8852783227        6.9559750960
       8
 i =       34, E =      -119.0632586014
 Cu         5.5132230374        8.0240121153        7.0498388755
  O         6.0125400422        8.8264532232        5.5501623226
  H         5.8717671587        8.2610885646        4.7677906347
  O         5.1577110412        7.1113712287        8.5192920124
  H         5.4306399551        7.5490170193        9.3470544880
  O         8.9028830949        7.2624277856        9.2171026962
  C         8.7990188952        7.5699885387        8.0847718028
  O         8.6789346212        7.8865681815        6.9568121629
       8
 i =       35, E =      -119.0633040019
 Cu         5.5144285173        8.0156062058        7.0464762738
  O         6.0116322737        8.8268557860        5.5501026207
  H         5.8725565860        8.2690128000        4.7623663376
  O         5.1570754076        7.1105142991        8.5197476104
  H         5.4282552373        7.5532366223        9.3456391638
  O         8.9035719532        7.2640168736        9.2174336992
  C         8.7995548253        7.5719467377        8.0851427823
  O         8.6776479124        7.8870720492        6.9571819953
       8
 i =       36, E =      -119.0633395070
 Cu         5.5144720549        8.0037876376        7.0397697496
  O         6.0104591845        8.8278165962        5.5514649125
  H         5.8717636319        8.2837828131        4.7543926365
  O         5.1551924234        7.1064644748        8.5188247754
  H         5.4247443652        7.5601314511        9.3389635874
  O         8.9068135044        7.2646912165        9.2175834634
  C         8.8003250892        7.5749000516        8.0862522189
  O         8.6774513756        7.8866359554        6.9582069861
       8
 i =       37, E =      -119.0633577941
 Cu         5.5153351368        8.0041623196        7.0377940239
  O         6.0086423051        8.8292893358        5.5491520297
  H         5.8656106149        8.2878424484        4.7522715902
  O         5.1558895148        7.1073731092        8.5182292653
  H         5.4245534028        7.5627324564        9.3373429930
  O         8.9069168800        7.2677809925        9.2179239516
  C         8.7992788433        7.5771766244        8.0867477559
  O         8.6756285831        7.8871981448        6.9585689690
       8
 i =       38, E =      -119.0633857585
 Cu         5.5148763174        8.0047727400        7.0317407942
  O         6.0084826080        8.8306127491        5.5465495202
  H         5.8580702994        8.2966314818        4.7471735334
  O         5.1565836692        7.1077798878        8.5155337892
  H         5.4224779915        7.5687913938        9.3315737723
  O         8.9069908991        7.2684494115        9.2175663091
  C         8.7966643734        7.5779718832        8.0873254219
  O         8.6747986678        7.8866762409        6.9589655835
       8
 i =       39, E =      -119.0634208613
 Cu         5.5133774962        8.0006245699        7.0174881982
  O         6.0088390855        8.8330511524        5.5412740411
  H         5.8487418068        8.3165596630        4.7325204818
  O         5.1576478777        7.1095813176        8.5101680212
  H         5.4151019887        7.5843777042        9.3204041177
  O         8.9069604991        7.2689427840        9.2169609417
  C         8.7924178654        7.5777629307        8.0879358432
  O         8.6741005870        7.8862812397        6.9592238904
       8
 i =       40, E =      -119.0634301323
 Cu         5.5112816480        7.9982686974        7.0092677760
  O         6.0094268841        8.8344563556        5.5381015140
  H         5.8456479349        8.3266536198        4.7238829681
  O         5.1579512702        7.1106878605        8.5068710442
  H         5.4095093810        7.5941515808        9.3140694076
  O         8.9063433177        7.2678624443        9.2167418497
  C         8.7913782185        7.5760708713        8.0876091762
  O         8.6745568269        7.8867301912        6.9589809964
       8
 i =       41, E =      -119.0634388209
 Cu         5.5113744219        7.9995973956        7.0124288031
  O         6.0095512297        8.8341698314        5.5387649090
  H         5.8479855826        8.3221580393        4.7264663897
  O         5.1574232455        7.1112563283        8.5072598214
  H         5.4088579850        7.5935948236        9.3155029236
  O         8.9060373698        7.2663825254        9.2168565685
  C         8.7928519706        7.5744054465        8.0869126233
  O         8.6757343103        7.8873161143        6.9584658114
       8
 i =       42, E =      -119.0634430179
 Cu         5.5119809206        7.9986541472        7.0123641110
  O         6.0095352395        8.8337350999        5.5389956337
  H         5.8469950868        8.3208401362        4.7272246007
  O         5.1570889849        7.1116885063        8.5074575296
  H         5.4075634924        7.5963162822        9.3150480029
  O         8.9053832735        7.2662212236        9.2171252029
  C         8.7941051223        7.5739697962        8.0865949115
  O         8.6761167023        7.8874645338        6.9583288753
       8
 i =       43, E =      -119.0634470482
 Cu         5.5121344269        7.9973810147        7.0120116211
  O         6.0089642132        8.8334324906        5.5388615778
  H         5.8437360426        8.3193328405        4.7282321254
  O         5.1567661701        7.1121248941        8.5079811152
  H         5.4057802086        7.6004317412        9.3137585549
  O         8.9055338746        7.2661028020        9.2173815660
  C         8.7956794386        7.5740388200        8.0865014298
  O         8.6765808412        7.8877056232        6.9582697804
       8
 i =       44, E =      -119.0634501100
 Cu         5.5126350851        7.9965770633        7.0118539871
  O         6.0085821963        8.8330486700        5.5384506802
  H         5.8396736084        8.3175162974        4.7293556898
  O         5.1566564889        7.1122001665        8.5085816824
  H         5.4040151099        7.6045081239        9.3123389572
  O         8.9055790352        7.2661863184        9.2175276049
  C         8.7962176325        7.5742778407        8.0865942266
  O         8.6766949035        7.8875790458        6.9583682890
       8
 i =       45, E =      -119.0634524340
 Cu         5.5122467553        7.9964858530        7.0119560091
  O         6.0082680969        8.8326840276        5.5379928433
  H         5.8358566187        8.3157491788        4.7302801802
  O         5.1568085352        7.1121607022        8.5090074422
  H         5.4018716093        7.6081959734        9.3108972736
  O         8.9057231104        7.2663456494        9.2174337729
  C         8.7958177157        7.5744978053        8.0867188602
  O         8.6764298084        7.8875350992        6.9584487215
       8
 i =       46, E =      -119.0634534155
 Cu         5.5123691269        7.9968774277        7.0123960716
  O         6.0083822808        8.8325052595        5.5378074585
  H         5.8346068492        8.3149107917        4.7306050730
  O         5.1569852665        7.1120902721        8.5092046658
  H         5.4003582560        7.6095445278        9.3106073128
  O         8.9057138555        7.2663546339        9.2172737773
  C         8.7949203894        7.5744401288        8.0867883536
  O         8.6762143069        7.8873294312        6.9584879019
       8
 i =       47, E =      -119.0634538804
 Cu         5.5123838801        7.9972381860        7.0128572827
  O         6.0085909662        8.8324333996        5.5379472479
  H         5.8347780223        8.3147260765        4.7307096974
  O         5.1570986527        7.1120323924        8.5093139506
  H         5.3990620860        7.6097147318        9.3109468021
  O         8.9056646723        7.2663827941        9.2171552685
  C         8.7943516958        7.5743835801        8.0868034333
  O         8.6760333916        7.8873095316        6.9584868207
       8
 i =       48, E =      -119.0634544000
 Cu         5.5124880674        7.9975300047        7.0134084332
  O         6.0087530089        8.8324725683        5.5382725006
  H         5.8353807243        8.3147775175        4.7308116374
  O         5.1571196049        7.1119877058        8.5094725576
  H         5.3969044302        7.6098450115        9.3116634369
  O         8.9056078260        7.2663469327        9.2170742284
  C         8.7939279977        7.5742788359        8.0868258426
  O         8.6759866267        7.8872739746        6.9584935852
       8
 i =       49, E =      -119.0634551536
 Cu         5.5124713384        7.9977707462        7.0140931859
  O         6.0088886820        8.8325426288        5.5388650712
  H         5.8362903072        8.3150037148        4.7310767469
  O         5.1569949142        7.1119252811        8.5097297286
  H         5.3929215807        7.6101779414        9.3128263977
  O         8.9055527931        7.2663295679        9.2170422972
  C         8.7936697484        7.5741710497        8.0868398688
  O         8.6759480024        7.8872952550        6.9585066142
       8
 i =       50, E =      -119.0634560115
 Cu         5.5126530031        7.9978156026        7.0146530290
  O         6.0087873503        8.8327400041        5.5394202902
  H         5.8371890989        8.3151842876        4.7314426860
  O         5.1567543799        7.1118499217        8.5099721241
  H         5.3876138741        7.6108779035        9.3140897157
  O         8.9055457988        7.2662752761        9.2170888266
  C         8.7938237938        7.5741003382        8.0868585312
  O         8.6760829228        7.8872960028        6.9585317456
       8
 i =       51, E =      -119.0634568403
 Cu         5.5127624831        7.9976854952        7.0148386664
  O         6.0084868328        8.8329050535        5.5397072175
  H         5.8380162216        8.3149656405        4.7318561999
  O         5.1564379511        7.1117764495        8.5100568302
  H         5.3821659635        7.6118159815        9.3149728834
  O         8.9055786864        7.2662795693        9.2171957588
  C         8.7942864822        7.5741021090        8.0868654121
  O         8.6762190617        7.8873281802        6.9585542800
       8
 i =       52, E =      -119.0634577042
 Cu         5.5129519065        7.9974199178        7.0146269757
  O         6.0080339599        8.8330736183        5.5396294917
  H         5.8393207488        8.3141393991        4.7321741917
  O         5.1561449986        7.1116882318        8.5099164827
  H         5.3764973871        7.6130520018        9.3154504903
  O         8.9056454158        7.2662719116        9.2173170845
  C         8.7948534675        7.5741081480        8.0868677499
  O         8.6763899978        7.8873243871        6.9585810166
       8
 i =       53, E =      -119.0634588912
 Cu         5.5128723697        7.9971331881        7.0140553462
  O         6.0076428284        8.8330828492        5.5392601724
  H         5.8415825669        8.3124756125        4.7324679784
  O         5.1559031442        7.1116053022        8.5095790179
  H         5.3718720590        7.6142172081        9.3154033181