 DBCSR| Multiplication driver                                               BLAS
 DBCSR| Multrec recursion limit                                              512
 DBCSR| Multiplication stack size                                           1000
 DBCSR| Maximum elements for images                                    UNLIMITED
 DBCSR| Multiplicative factor virtual images                                   1
 DBCSR| Multiplication size stacks                                             3
 DBCSR| Number of 3D layers                                               SINGLE
 DBCSR| Use MPI memory allocation                                              T
 DBCSR| Use RMA algorithm                                                      F
 DBCSR| Use Communication thread                                               T
 DBCSR| Communication thread load                                             87


  **** **** ******  **  PROGRAM STARTED AT               2018-10-04 12:33:03.683
 ***** ** ***  *** **   PROGRAM STARTED ON                                  g003
 **    ****   ******    PROGRAM STARTED BY                                ongari
 ***** **    ** ** **   PROGRAM PROCESS ID                                  7958
  **** **  *******  **  PROGRAM STARTED IN /scratch/ongari/proj45_cp2krestart/1_
                                           geoopt_AB_cu

 CP2K| version string:                                          CP2K version 5.1
 CP2K| source code revision number:                                    svn:18091
 CP2K| cp2kflags: libint fftw3 pexsi parallel mpi3 scalapack libderiv_max_am1=5 
 CP2K|            libint_max_am=6
 CP2K| is freely available from                            https://www.cp2k.org/
 CP2K| Program compiled at                          Thu Jul 5 10:57:58 CEST 2018
 CP2K| Program compiled on                                                  g005
 CP2K| Program compiled for                  linux-rhel7-x86_S6g1_Mellanox-intel
 CP2K| Data directory path    /dev/shm/scitasbuild/spack-stage/spack-stage-Kdd_n
 CP2K| Input file name                                                  CP2K.inp
 
 GLOBAL| Force Environment number                                              1
 GLOBAL| Basis set file name                                      ./BASIS_MOLOPT
 GLOBAL| Potential file name                                    ./GTH_POTENTIALS
 GLOBAL| MM Potential file name                                     MM_POTENTIAL
 GLOBAL| Coordinate file name                                      __STD_INPUT__
 GLOBAL| Method name                                                        CP2K
 GLOBAL| Project name                                                       cp2k
 GLOBAL| Preferred FFT library                                             FFTW3
 GLOBAL| Preferred diagonalization lib.                                       SL
 GLOBAL| Run type                                                        GEO_OPT
 GLOBAL| All-to-all communication in single precision                          F
 GLOBAL| FFTs using library dependent lengths                                  F
 GLOBAL| Global print level                                               MEDIUM
 GLOBAL| Total number of message passing processes                            49
 GLOBAL| Number of threads for this process                                    1
 GLOBAL| This output is from process                                           0
 GLOBAL| CPU model name :  Intel(R) Xeon(R) Gold 6132 CPU @ 2.60GHz

 MEMORY| system memory details [Kb]
 MEMORY|                        rank 0           min           max       average
 MEMORY| MemTotal            197738988     197738988     197738988     197738988
 MEMORY| MemFree             181602336     181602336     182146764     181835662
 MEMORY| Buffers                  6612          6612          7172          6852
 MEMORY| Cached                 172204        159164        172204        166615
 MEMORY| Slab                   244044        244044        256392        249336
 MEMORY| SReclaimable            85256         78820         85256         82497
 MEMORY| MemLikelyFree       181866408     181866408     182391920     182091627


 *** Fundamental physical constants (SI units) ***

 *** Literature: B. J. Mohr and B. N. Taylor,
 ***             CODATA recommended values of the fundamental physical
 ***             constants: 2006, Web Version 5.1
 ***             http://physics.nist.gov/constants

 Speed of light in vacuum [m/s]                             2.99792458000000E+08
 Magnetic constant or permeability of vacuum [N/A**2]       1.25663706143592E-06
 Electric constant or permittivity of vacuum [F/m]          8.85418781762039E-12
 Planck constant (h) [J*s]                                  6.62606896000000E-34
 Planck constant (h-bar) [J*s]                              1.05457162825177E-34
 Elementary charge [C]                                      1.60217648700000E-19
 Electron mass [kg]                                         9.10938215000000E-31
 Electron g factor [ ]                                     -2.00231930436220E+00
 Proton mass [kg]                                           1.67262163700000E-27
 Fine-structure constant                                    7.29735253760000E-03
 Rydberg constant [1/m]                                     1.09737315685270E+07
 Avogadro constant [1/mol]                                  6.02214179000000E+23
 Boltzmann constant [J/K]                                   1.38065040000000E-23
 Atomic mass unit [kg]                                      1.66053878200000E-27
 Bohr radius [m]                                            5.29177208590000E-11

 *** Conversion factors ***

 [u] -> [a.u.]                                              1.82288848426455E+03
 [Angstrom] -> [Bohr] = [a.u.]                              1.88972613288564E+00
 [a.u.] = [Bohr] -> [Angstrom]                              5.29177208590000E-01
 [a.u.] -> [s]                                              2.41888432650478E-17
 [a.u.] -> [fs]                                             2.41888432650478E-02
 [a.u.] -> [J]                                              4.35974393937059E-18
 [a.u.] -> [N]                                              8.23872205491840E-08
 [a.u.] -> [K]                                              3.15774647902944E+05
 [a.u.] -> [kJ/mol]                                         2.62549961709828E+03
 [a.u.] -> [kcal/mol]                                       6.27509468713739E+02
 [a.u.] -> [Pa]                                             2.94210107994716E+13
 [a.u.] -> [bar]                                            2.94210107994716E+08
 [a.u.] -> [atm]                                            2.90362800883016E+08
 [a.u.] -> [eV]                                             2.72113838565563E+01
 [a.u.] -> [Hz]                                             6.57968392072181E+15
 [a.u.] -> [1/cm] (wave numbers)                            2.19474631370540E+05
 [a.u./Bohr**2] -> [1/cm]                                   5.14048714338585E+03
 

 CELL_TOP| Volume [angstrom^3]:                                         3375.000
 CELL_TOP| Vector a [angstrom    15.000     0.000     0.000    |a| =      15.000
 CELL_TOP| Vector b [angstrom     0.000    15.000     0.000    |b| =      15.000
 CELL_TOP| Vector c [angstrom     0.000     0.000    15.000    |c| =      15.000
 CELL_TOP| Angle (b,c), alpha [degree]:                                   90.000
 CELL_TOP| Angle (a,c), beta  [degree]:                                   90.000
 CELL_TOP| Angle (a,b), gamma [degree]:                                   90.000
 CELL_TOP| Numerically orthorhombic:                                         YES
 
 GENERATE|  Preliminary Number of Bonds generated:                             0
 GENERATE|  Achieved consistency in connectivity generation.

 CELL| Volume [angstrom^3]:                                             3375.000
 CELL| Vector a [angstrom]:      15.000     0.000     0.000    |a| =      15.000
 CELL| Vector b [angstrom]:       0.000    15.000     0.000    |b| =      15.000
 CELL| Vector c [angstrom]:       0.000     0.000    15.000    |c| =      15.000
 CELL| Angle (b,c), alpha [degree]:                                       90.000
 CELL| Angle (a,c), beta  [degree]:                                       90.000
 CELL| Angle (a,b), gamma [degree]:                                       90.000
 CELL| Numerically orthorhombic:                                             YES

 CELL_REF| Volume [angstrom^3]:                                         3375.000
 CELL_REF| Vector a [angstrom    15.000     0.000     0.000    |a| =      15.000
 CELL_REF| Vector b [angstrom     0.000    15.000     0.000    |b| =      15.000
 CELL_REF| Vector c [angstrom     0.000     0.000    15.000    |c| =      15.000
 CELL_REF| Angle (b,c), alpha [degree]:                                   90.000
 CELL_REF| Angle (a,c), beta  [degree]:                                   90.000
 CELL_REF| Angle (a,b), gamma [degree]:                                   90.000
 CELL_REF| Numerically orthorhombic:                                         YES

 *******************************************************************************
 *******************************************************************************
 **                                                                           **
 **     #####                         ##              ##                      **
 **    ##   ##            ##          ##              ##                      **
 **   ##     ##                       ##            ######                    **
 **   ##     ##  ##   ##  ##   #####  ##  ##   ####   ##    #####    #####    **
 **   ##     ##  ##   ##  ##  ##      ## ##   ##      ##   ##   ##  ##   ##   **
 **   ##  ## ##  ##   ##  ##  ##      ####     ###    ##   ######   ######    **
 **    ##  ###   ##   ##  ##  ##      ## ##      ##   ##   ##       ##        **
 **     #######   #####   ##   #####  ##  ##  ####    ##    #####   ##        **
 **           ##                                                    ##        **
 **                                                                           **
 **                                                ... make the atoms dance   **
 **                                                                           **
 **            Copyright (C) by CP2K developers group (2000 - 2017)           **
 **                                                                           **
 *******************************************************************************

 DFT| Spin unrestricted (spin-polarized) Kohn-Sham calculation               UKS
 DFT| Multiplicity                                                             2
 DFT| Number of spin states                                                    2
 DFT| Charge                                                                   0
 DFT| Self-interaction correction (SIC)                                       NO
 DFT| Cutoffs: density                                              1.000000E-10
 DFT|          gradient                                             1.000000E-10
 DFT|          tau                                                  1.000000E-10
 DFT|          cutoff_smoothing_range                               0.000000E+00
 DFT| XC density smoothing                                                  NONE
 DFT| XC derivatives                                                          PW
 FUNCTIONAL| ROUTINE=NEW
 FUNCTIONAL| PBE:
 FUNCTIONAL| J.P.Perdew, K.Burke, M.Ernzerhof, Phys. Rev. Letter, vol. 77, n 18,
 FUNCTIONAL|  pp. 3865-3868, (1996){spin polarized}                             
 vdW POTENTIAL|                                                   Pair Potential
 vdW POTENTIAL|          DFT-D3 (Version 3.1)
 vdW POTENTIAL|          Potential Form: S. Grimme et al, JCP 132: 154104 (2010)
 vdW POTENTIAL|          BJ Damping: S. Grimme et al, JCC 32: 1456 (2011)
 vdW POTENTIAL|          Cutoff Radius [Bohr]:                             20.00
 vdW POTENTIAL|          s6 Scaling Factor:                               1.0000
 vdW POTENTIAL|          a1 Damping Factor:                               0.4289
 vdW POTENTIAL|          s8 Scaling Factor:                               0.7875
 vdW POTENTIAL|          a2 Damping Factor:                               4.4407
 vdW POTENTIAL|          Cutoff for CN calculation:                   0.1000E-05

 QS| Method:                                                                 GPW
 QS| Density plane wave grid type                        NON-SPHERICAL FULLSPACE
 QS| Number of grid levels:                                                    4
 QS| Density cutoff [a.u.]:                                                200.0
 QS| Multi grid cutoff [a.u.]: 1) grid level                               200.0
 QS|                           2) grid level                                66.7
 QS|                           3) grid level                                22.2
 QS|                           4) grid level                                 7.4
 QS| Grid level progression factor:                                          3.0
 QS| Relative density cutoff [a.u.]:                                        25.0
 QS| Consistent realspace mapping and integration 
 QS| Interaction thresholds: eps_pgf_orb:                                1.0E-05
 QS|                         eps_filter_matrix:                          0.0E+00
 QS|                         eps_core_charge:                            1.0E-12
 QS|                         eps_rho_gspace:                             1.0E-10
 QS|                         eps_rho_rspace:                             1.0E-10
 QS|                         eps_gvg_rspace:                             1.0E-05
 QS|                         eps_ppl:                                    1.0E-02
 QS|                         eps_ppnl:                                   1.0E-07


 ATOMIC KIND INFORMATION

  1. Atomic kind: Cu                                    Number of atoms:       1

     Orbital Basis Set                                        DZVP-MOLOPT-SR-GTH

       Number of orbital shell sets:                                           1
       Number of orbital shells:                                               7
       Number of primitive Cartesian functions:                                6
       Number of Cartesian basis functions:                                   30
       Number of spherical basis functions:                                   25
       Norm type:                                                              2

       Normalised Cartesian orbitals:

                        Set   Shell   Orbital            Exponent    Coefficient

                          1       1    2s                5.804051       0.045596
                                                         2.947778      -0.139279
                                                         1.271621       0.214572
                                                         0.517174       0.085605
                                                         0.198007      -0.138200
                                                         0.061684      -0.053295

                          1       2    3s                5.804051       0.130403
                                                         2.947778      -0.161341
                                                         1.271621      -0.101039
                                                         0.517174      -0.345250
                                                         0.198007       0.499925
                                                         0.061684      -0.162382

                          1       3    3px               5.804051      -0.066551
                                                         2.947778       0.111915
                                                         1.271621      -0.204459
                                                         0.517174       0.040237
                                                         0.198007       0.099394
                                                         0.061684       0.024283
                          1       3    3py               5.804051      -0.066551
                                                         2.947778       0.111915
                                                         1.271621      -0.204459
                                                         0.517174       0.040237
                                                         0.198007       0.099394
                                                         0.061684       0.024283
                          1       3    3pz               5.804051      -0.066551
                                                         2.947778       0.111915
                                                         1.271621      -0.204459
                                                         0.517174       0.040237
                                                         0.198007       0.099394
                                                         0.061684       0.024283

                          1       4    4px               5.804051      -0.329266
                                                         2.947778       0.140173
                                                         1.271621       0.545791
                                                         0.517174       0.280404
                                                         0.198007      -0.321326
                                                         0.061684       0.055470
                          1       4    4py               5.804051      -0.329266
                                                         2.947778       0.140173
                                                         1.271621       0.545791
                                                         0.517174       0.280404
                                                         0.198007      -0.321326
                                                         0.061684       0.055470
                          1       4    4pz               5.804051      -0.329266
                                                         2.947778       0.140173
                                                         1.271621       0.545791
                                                         0.517174       0.280404
                                                         0.198007      -0.321326
                                                         0.061684       0.055470

                          1       5    4dx2              5.804051       9.381621
                                                         2.947778       3.660256
                                                         1.271621       0.792510
                                                         0.517174       0.128389
                                                         0.198007       0.013938
                                                         0.061684       0.000367
                          1       5    4dxy              5.804051      16.249444
                                                         2.947778       6.339749
                                                         1.271621       1.372667
                                                         0.517174       0.222377
                                                         0.198007       0.024141
                                                         0.061684       0.000636
                          1       5    4dxz              5.804051      16.249444
                                                         2.947778       6.339749
                                                         1.271621       1.372667
                                                         0.517174       0.222377
                                                         0.198007       0.024141
                                                         0.061684       0.000636
                          1       5    4dy2              5.804051       9.381621
                                                         2.947778       3.660256
                                                         1.271621       0.792510
                                                         0.517174       0.128389
                                                         0.198007       0.013938
                                                         0.061684       0.000367
                          1       5    4dyz              5.804051      16.249444
                                                         2.947778       6.339749
                                                         1.271621       1.372667
                                                         0.517174       0.222377
                                                         0.198007       0.024141
                                                         0.061684       0.000636
                          1       5    4dz2              5.804051       9.381621
                                                         2.947778       3.660256
                                                         1.271621       0.792510
                                                         0.517174       0.128389
                                                         0.198007       0.013938
                                                         0.061684       0.000367

                          1       6    5dx2              5.804051      -3.189865
                                                         2.947778      -1.988097
                                                         1.271621      -0.492759
                                                         0.517174       0.080183
                                                         0.198007       0.017863
                                                         0.061684       0.009947
                          1       6    5dxy              5.804051      -5.525009
                                                         2.947778      -3.443486
                                                         1.271621      -0.853484
                                                         0.517174       0.138882
                                                         0.198007       0.030940
                                                         0.061684       0.017228
                          1       6    5dxz              5.804051      -5.525009
                                                         2.947778      -3.443486
                                                         1.271621      -0.853484
                                                         0.517174       0.138882
                                                         0.198007       0.030940
                                                         0.061684       0.017228
                          1       6    5dy2              5.804051      -3.189865
                                                         2.947778      -1.988097
                                                         1.271621      -0.492759
                                                         0.517174       0.080183
                                                         0.198007       0.017863
                                                         0.061684       0.009947
                          1       6    5dyz              5.804051      -5.525009
                                                         2.947778      -3.443486
                                                         1.271621      -0.853484
                                                         0.517174       0.138882
                                                         0.198007       0.030940
                                                         0.061684       0.017228
                          1       6    5dz2              5.804051      -3.189865
                                                         2.947778      -1.988097
                                                         1.271621      -0.492759
                                                         0.517174       0.080183
                                                         0.198007       0.017863
                                                         0.061684       0.009947

                          1       7    5fx3              5.804051      -1.183361
                                                         2.947778       0.859927
                                                         1.271621      -0.674185
                                                         0.517174      -0.156063
                                                         0.198007      -0.018231
                                                         0.061684       0.001772
                          1       7    5fx2y             5.804051      -2.646075
                                                         2.947778       1.922855
                                                         1.271621      -1.507524
                                                         0.517174      -0.348968
                                                         0.198007      -0.040766
                                                         0.061684       0.003961
                          1       7    5fx2z             5.804051      -2.646075
                                                         2.947778       1.922855
                                                         1.271621      -1.507524
                                                         0.517174      -0.348968
                                                         0.198007      -0.040766
                                                         0.061684       0.003961
                          1       7    5fxy2             5.804051      -2.646075
                                                         2.947778       1.922855
                                                         1.271621      -1.507524
                                                         0.517174      -0.348968
                                                         0.198007      -0.040766
                                                         0.061684       0.003961
                          1       7    5fxyz             5.804051      -4.583137
                                                         2.947778       3.330483
                                                         1.271621      -2.611108
                                                         0.517174      -0.604431
                                                         0.198007      -0.070608
                                                         0.061684       0.006861
                          1       7    5fxz2             5.804051      -2.646075
                                                         2.947778       1.922855
                                                         1.271621      -1.507524
                                                         0.517174      -0.348968
                                                         0.198007      -0.040766
                                                         0.061684       0.003961
                          1       7    5fy3              5.804051      -1.183361
                                                         2.947778       0.859927
                                                         1.271621      -0.674185
                                                         0.517174      -0.156063
                                                         0.198007      -0.018231
                                                         0.061684       0.001772
                          1       7    5fy2z             5.804051      -2.646075
                                                         2.947778       1.922855
                                                         1.271621      -1.507524
                                                         0.517174      -0.348968
                                                         0.198007      -0.040766
                                                         0.061684       0.003961
                          1       7    5fyz2             5.804051      -2.646075
                                                         2.947778       1.922855
                                                         1.271621      -1.507524
                                                         0.517174      -0.348968
                                                         0.198007      -0.040766
                                                         0.061684       0.003961
                          1       7    5fz3              5.804051      -1.183361
                                                         2.947778       0.859927
                                                         1.271621      -0.674185
                                                         0.517174      -0.156063
                                                         0.198007      -0.018231
                                                         0.061684       0.001772

     GTH Potential information for                                       GTH-PBE

       Description:                       Goedecker-Teter-Hutter pseudopotential
                                           Goedecker et al., PRB 54, 1703 (1996)
                                          Hartwigsen et al., PRB 58, 3641 (1998)
                                                      Krack, TCA 114, 145 (2005)

       Gaussian exponent of the core charge distribution:               1.779993
       Electronic configuration (s p d ...):                           1   0  10

       Parameters of the local part of the GTH pseudopotential:

                          rloc        C1          C2          C3          C4
                        0.530000

       Parameters of the non-local part of the GTH pseudopotential:

                   l      r(l)      h(i,j,l)

                   0    0.431355    9.693805   -6.470165    1.935952
                                   -6.470165   11.501774   -4.998607
                                    1.935952   -4.998607    3.967521
                   1    0.561392    2.545473   -0.784636
                                   -0.784636    0.928394
                   2    0.264555  -12.828614

  2. Atomic kind: O                                     Number of atoms:       4

     Orbital Basis Set                                        DZVP-MOLOPT-SR-GTH

       Number of orbital shell sets:                                           1
       Number of orbital shells:                                               5
       Number of primitive Cartesian functions:                                5
       Number of Cartesian basis functions:                                   14
       Number of spherical basis functions:                                   13
       Norm type:                                                              2

       Normalised Cartesian orbitals:

                        Set   Shell   Orbital            Exponent    Coefficient

                          1       1    2s               10.389228       0.396646
                                                         3.849621       0.208811
                                                         1.388401      -0.301641
                                                         0.496955      -0.274061
                                                         0.162492      -0.033677

                          1       2    3s               10.389228       0.303673
                                                         3.849621       0.240943
                                                         1.388401      -0.313066
                                                         0.496955      -0.043055
                                                         0.162492       0.213991

                          1       3    3px              10.389228      -1.530415
                                                         3.849621      -1.371928
                                                         1.388401      -0.761951
                                                         0.496955      -0.253695
                                                         0.162492      -0.035541
                          1       3    3py              10.389228      -1.530415
                                                         3.849621      -1.371928
                                                         1.388401      -0.761951
                                                         0.496955      -0.253695
                                                         0.162492      -0.035541
                          1       3    3pz              10.389228      -1.530415
                                                         3.849621      -1.371928
                                                         1.388401      -0.761951
                                                         0.496955      -0.253695
                                                         0.162492      -0.035541

                          1       4    4px              10.389228      -0.565392
                                                         3.849621      -0.038231
                                                         1.388401      -0.382373
                                                         0.496955       0.179070
                                                         0.162492       0.122714
                          1       4    4py              10.389228      -0.565392
                                                         3.849621      -0.038231
                                                         1.388401      -0.382373
                                                         0.496955       0.179070
                                                         0.162492       0.122714
                          1       4    4pz              10.389228      -0.565392
                                                         3.849621      -0.038231
                                                         1.388401      -0.382373
                                                         0.496955       0.179070
                                                         0.162492       0.122714

                          1       5    4dx2             10.389228       1.867377
                                                         3.849621       0.670994
                                                         1.388401       1.353441
                                                         0.496955       0.273538
                                                         0.162492       0.006620
                          1       5    4dxy             10.389228       3.234392
                                                         3.849621       1.162195
                                                         1.388401       2.344229
                                                         0.496955       0.473781
                                                         0.162492       0.011466
                          1       5    4dxz             10.389228       3.234392
                                                         3.849621       1.162195
                                                         1.388401       2.344229
                                                         0.496955       0.473781
                                                         0.162492       0.011466
                          1       5    4dy2             10.389228       1.867377
                                                         3.849621       0.670994
                                                         1.388401       1.353441
                                                         0.496955       0.273538
                                                         0.162492       0.006620
                          1       5    4dyz             10.389228       3.234392
                                                         3.849621       1.162195
                                                         1.388401       2.344229
                                                         0.496955       0.473781
                                                         0.162492       0.011466
                          1       5    4dz2             10.389228       1.867377
                                                         3.849621       0.670994
                                                         1.388401       1.353441
                                                         0.496955       0.273538
                                                         0.162492       0.006620

     GTH Potential information for                                       GTH-PBE

       Description:                       Goedecker-Teter-Hutter pseudopotential
                                           Goedecker et al., PRB 54, 1703 (1996)
                                          Hartwigsen et al., PRB 58, 3641 (1998)
                                                      Krack, TCA 114, 145 (2005)

       Gaussian exponent of the core charge distribution:               8.360253
       Electronic configuration (s p d ...):                               2   4

       Parameters of the local part of the GTH pseudopotential:

                          rloc        C1          C2          C3          C4
                        0.244554  -16.667215    2.487311

       Parameters of the non-local part of the GTH pseudopotential:

                   l      r(l)      h(i,j,l)

                   0    0.220956   18.337458
                   1    0.211332

  3. Atomic kind: H                                     Number of atoms:       2

     Orbital Basis Set                                        DZVP-MOLOPT-SR-GTH

       Number of orbital shell sets:                                           1
       Number of orbital shells:                                               3
       Number of primitive Cartesian functions:                                5
       Number of Cartesian basis functions:                                    5
       Number of spherical basis functions:                                    5
       Norm type:                                                              2

       Normalised Cartesian orbitals:

                        Set   Shell   Orbital            Exponent    Coefficient

                          1       1    2s               10.068468      -0.133023
                                                         2.680223      -0.177618
                                                         0.791502      -0.258419
                                                         0.239116      -0.107525
                                                         0.082193      -0.014019

                          1       2    3s               10.068468       0.344673
                                                         2.680223       1.819821
                                                         0.791502      -0.999069
                                                         0.239116       0.017430
                                                         0.082193       0.082660

                          1       3    3px              10.068468       0.155326
                                                         2.680223       0.367157
                                                         0.791502       0.311480
                                                         0.239116       0.080105
                                                         0.082193       0.033440
                          1       3    3py              10.068468       0.155326
                                                         2.680223       0.367157
                                                         0.791502       0.311480
                                                         0.239116       0.080105
                                                         0.082193       0.033440
                          1       3    3pz              10.068468       0.155326
                                                         2.680223       0.367157
                                                         0.791502       0.311480
                                                         0.239116       0.080105
                                                         0.082193       0.033440

     GTH Potential information for                                       GTH-PBE

       Description:                       Goedecker-Teter-Hutter pseudopotential
                                           Goedecker et al., PRB 54, 1703 (1996)
                                          Hartwigsen et al., PRB 58, 3641 (1998)
                                                      Krack, TCA 114, 145 (2005)

       Gaussian exponent of the core charge distribution:              12.500000
       Electronic configuration (s p d ...):                                   1

       Parameters of the local part of the GTH pseudopotential:

                          rloc        C1          C2          C3          C4
                        0.200000   -4.178900    0.724463

  4. Atomic kind: C                                     Number of atoms:       1

     Orbital Basis Set                                        DZVP-MOLOPT-SR-GTH

       Number of orbital shell sets:                                           1
       Number of orbital shells:                                               5
       Number of primitive Cartesian functions:                                5
       Number of Cartesian basis functions:                                   14
       Number of spherical basis functions:                                   13
       Norm type:                                                              2

       Normalised Cartesian orbitals:

                        Set   Shell   Orbital            Exponent    Coefficient

                          1       1    2s                5.605331       0.322515
                                                         2.113016       0.213043
                                                         0.769911      -0.209686
                                                         0.348157      -0.219794
                                                         0.128212      -0.022789

                          1       2    3s                5.605331       0.552234
                                                         2.113016       0.082072
                                                         0.769911       0.007843
                                                         0.348157       0.136893
                                                         0.128212       0.074283

                          1       3    3px               5.605331      -0.703879
                                                         2.113016      -0.642521
                                                         0.769911      -0.374851
                                                         0.348157      -0.139743
                                                         0.128212      -0.027849
                          1       3    3py               5.605331      -0.703879
                                                         2.113016      -0.642521
                                                         0.769911      -0.374851
                                                         0.348157      -0.139743
                                                         0.128212      -0.027849
                          1       3    3pz               5.605331      -0.703879
                                                         2.113016      -0.642521
                                                         0.769911      -0.374851
                                                         0.348157      -0.139743
                                                         0.128212      -0.027849

                          1       4    4px               5.605331      -0.480376
                                                         2.113016      -0.552894
                                                         0.769911      -0.316145
                                                         0.348157       0.210505
                                                         0.128212       0.076095
                          1       4    4py               5.605331      -0.480376
                                                         2.113016      -0.552894
                                                         0.769911      -0.316145
                                                         0.348157       0.210505
                                                         0.128212       0.076095
                          1       4    4pz               5.605331      -0.480376
                                                         2.113016      -0.552894
                                                         0.769911      -0.316145
                                                         0.348157       0.210505
                                                         0.128212       0.076095

                          1       5    4dx2              5.605331       0.640026
                                                         2.113016       0.274300
                                                         0.769911       0.446711
                                                         0.348157       0.028674
                                                         0.128212       0.029790
                          1       5    4dxy              5.605331       1.108557
                                                         2.113016       0.475102
                                                         0.769911       0.773726
                                                         0.348157       0.049666
                                                         0.128212       0.051599
                          1       5    4dxz              5.605331       1.108557
                                                         2.113016       0.475102
                                                         0.769911       0.773726
                                                         0.348157       0.049666
                                                         0.128212       0.051599
                          1       5    4dy2              5.605331       0.640026
                                                         2.113016       0.274300
                                                         0.769911       0.446711
                                                         0.348157       0.028674
                                                         0.128212       0.029790
                          1       5    4dyz              5.605331       1.108557
                                                         2.113016       0.475102
                                                         0.769911       0.773726
                                                         0.348157       0.049666
                                                         0.128212       0.051599
                          1       5    4dz2              5.605331       0.640026
                                                         2.113016       0.274300
                                                         0.769911       0.446711
                                                         0.348157       0.028674
                                                         0.128212       0.029790

     GTH Potential information for                                       GTH-PBE

       Description:                       Goedecker-Teter-Hutter pseudopotential
                                           Goedecker et al., PRB 54, 1703 (1996)
                                          Hartwigsen et al., PRB 58, 3641 (1998)
                                                      Krack, TCA 114, 145 (2005)

       Gaussian exponent of the core charge distribution:               4.364419
       Electronic configuration (s p d ...):                               2   2

       Parameters of the local part of the GTH pseudopotential:

                          rloc        C1          C2          C3          C4
                        0.338471   -8.803674    1.339211

       Parameters of the non-local part of the GTH pseudopotential:

                   l      r(l)      h(i,j,l)

                   0    0.302576    9.622487
                   1    0.291507


 MOLECULE KIND INFORMATION


 All atoms are their own molecule, skipping detailed information


 TOTAL NUMBERS AND MAXIMUM NUMBERS

  Total number of            - Atomic kinds:                                   4
                             - Atoms:                                          8
                             - Shell sets:                                     8
                             - Shells:                                        38
                             - Primitive Cartesian functions:                 41
                             - Cartesian basis functions:                    110
                             - Spherical basis functions:                    100

  Maximum angular momentum of- Orbital basis functions:                        3
                             - Local part of the GTH pseudopotential:          2
                             - Non-local part of the GTH pseudopotential:      4


 MODULE QUICKSTEP:  ATOMIC COORDINATES IN angstrom

  Atom  Kind  Element       X           Y           Z          Z(eff)       Mass

       1     1 Cu  29    5.674050    7.671750    7.038300     11.00      63.5460
       2     2 O    8    6.286050    8.555550    4.118550      6.00      15.9994
       3     3 H    1    6.115650    8.508900    3.144300      1.00       1.0079
       4     2 O    8    5.041050    7.362900   10.329750      6.00      15.9994
       5     3 H    1    5.506050    7.285800   11.200650      1.00       1.0079
       6     2 O    8    8.359050    7.217400    9.257100      6.00      15.9994
       7     4 C    6    8.753250    7.477950    8.158200      4.00      12.0107
       8     2 O    8    9.147450    7.738500    7.059150      6.00      15.9994




 SCF PARAMETERS         Density guess:                                    ATOMIC
                        --------------------------------------------------------
                        max_scf:                                              50
                        max_scf_history:                                       0
                        max_diis:                                              4
                        --------------------------------------------------------
                        eps_scf:                                        1.00E-06
                        eps_scf_history:                                0.00E+00
                        eps_diis:                                       1.00E-01
                        eps_eigval:                                     1.00E-05
                        --------------------------------------------------------
                        level_shift [a.u.]:                                 0.00
                        --------------------------------------------------------
                        Outer loop SCF in use 
                        No variables optimised in outer loop
                        eps_scf                                         1.00E-06
                        max_scf                                               10
                        No outer loop optimization
                        step_size                                       5.00E-01

 PW_GRID| Information for grid number                                          1
 PW_GRID| Grid distributed over                                    49 processors
 PW_GRID| Real space group dimensions                                    49    1
 PW_GRID| the grid is blocked:                                                NO
 PW_GRID| Cutoff [a.u.]                                                    200.0
 PW_GRID| spherical cutoff:                                                   NO
 PW_GRID|   Bounds   1            -96      95                Points:         192
 PW_GRID|   Bounds   2            -96      95                Points:         192
 PW_GRID|   Bounds   3            -96      95                Points:         192
 PW_GRID| Volume element (a.u.^3)  0.3218E-02     Volume (a.u.^3)     22775.6292
 PW_GRID| Grid span                                                    FULLSPACE
 PW_GRID|   Distribution                         Average         Max         Min
 PW_GRID|   G-Vectors                           144446.7      144576      144384
 PW_GRID|   G-Rays                                 752.3         753         752
 PW_GRID|   Real Space Points                   144446.7      147456      110592

 PW_GRID| Information for grid number                                          2
 PW_GRID| Grid distributed over                                    49 processors
 PW_GRID| Real space group dimensions                                    49    1
 PW_GRID| the grid is blocked:                                                NO
 PW_GRID| Cutoff [a.u.]                                                     66.7
 PW_GRID| spherical cutoff:                                                   NO
 PW_GRID|   Bounds   1            -54      53                Points:         108
 PW_GRID|   Bounds   2            -54      53                Points:         108
 PW_GRID|   Bounds   3            -54      53                Points:         108
 PW_GRID| Volume element (a.u.^3)  0.1808E-01     Volume (a.u.^3)     22775.6292
 PW_GRID| Grid span                                                    FULLSPACE
 PW_GRID|   Distribution                         Average         Max         Min
 PW_GRID|   G-Vectors                            25708.4       25812       25596
 PW_GRID|   G-Rays                                 238.0         239         237
 PW_GRID|   Real Space Points                    25708.4       34992       23328

 PW_GRID| Information for grid number                                          3
 PW_GRID| Grid distributed over                                    49 processors
 PW_GRID| Real space group dimensions                                    49    1
 PW_GRID| the grid is blocked:                                                NO
 PW_GRID| Cutoff [a.u.]                                                     22.2
 PW_GRID| spherical cutoff:                                                   NO
 PW_GRID|   Bounds   1            -32      31                Points:          64
 PW_GRID|   Bounds   2            -32      31                Points:          64
 PW_GRID|   Bounds   3            -32      31                Points:          64
 PW_GRID| Volume element (a.u.^3)  0.8688E-01     Volume (a.u.^3)     22775.6292
 PW_GRID| Grid span                                                    FULLSPACE
 PW_GRID|   Distribution                         Average         Max         Min
 PW_GRID|   G-Vectors                             5349.9        5440        5248
 PW_GRID|   G-Rays                                  83.6          85          82
 PW_GRID|   Real Space Points                     5349.9        8192        4096

 PW_GRID| Information for grid number                                          4
 PW_GRID| Grid distributed over                                    49 processors
 PW_GRID| Real space group dimensions                                     7    7
 PW_GRID| the grid is blocked:                                                NO
 PW_GRID| Cutoff [a.u.]                                                      7.4
 PW_GRID| spherical cutoff:                                                   NO
 PW_GRID|   Bounds   1            -18      17                Points:          36
 PW_GRID|   Bounds   2            -18      17                Points:          36
 PW_GRID|   Bounds   3            -18      17                Points:          36
 PW_GRID| Volume element (a.u.^3)  0.4882         Volume (a.u.^3)     22775.6292
 PW_GRID| Grid span                                                    FULLSPACE
 PW_GRID|   Distribution                         Average         Max         Min
 PW_GRID|   G-Vectors                              952.2        1008         900
 PW_GRID|   G-Rays                                  26.4          28          25
 PW_GRID|   Real Space Points                      952.2        1296         900

 POISSON| Solver                                                        PERIODIC
 POISSON| Periodicity                                                        XYZ

 RS_GRID| Information for grid number                                          1
 RS_GRID|   Bounds   1            -96      95                Points:         192
 RS_GRID|   Bounds   2            -96      95                Points:         192
 RS_GRID|   Bounds   3            -96      95                Points:         192
 RS_GRID| Real space distribution over                                  7 groups
 RS_GRID| Real space distribution along direction                              2
 RS_GRID| Border size                                                         28
 RS_GRID| Real space distribution over                                  7 groups
 RS_GRID| Real space distribution along direction                              3
 RS_GRID| Border size                                                         28
 RS_GRID|   Distribution                         Average         Max         Min
 RS_GRID|   Planes                                  83.4          84          83
 RS_GRID|   Distribution                         Average         Max         Min
 RS_GRID|   Planes                                  83.4          84          83

 RS_GRID| Information for grid number                                          2
 RS_GRID|   Bounds   1            -54      53                Points:         108
 RS_GRID|   Bounds   2            -54      53                Points:         108
 RS_GRID|   Bounds   3            -54      53                Points:         108
 RS_GRID| Real space distribution over                                  7 groups
 RS_GRID| Real space distribution along direction                              2
 RS_GRID| Border size                                                         25
 RS_GRID| Real space distribution over                                  7 groups
 RS_GRID| Real space distribution along direction                              3
 RS_GRID| Border size                                                         25
 RS_GRID|   Distribution                         Average         Max         Min
 RS_GRID|   Planes                                  65.4          66          65
 RS_GRID|   Distribution                         Average         Max         Min
 RS_GRID|   Planes                                  65.4          66          65

 RS_GRID| Information for grid number                                          3
 RS_GRID|   Bounds   1            -32      31                Points:          64
 RS_GRID|   Bounds   2            -32      31                Points:          64
 RS_GRID|   Bounds   3            -32      31                Points:          64
 RS_GRID| Real space fully replicated
 RS_GRID| Group size                                                           1

 RS_GRID| Information for grid number                                          4
 RS_GRID|   Bounds   1            -18      17                Points:          36
 RS_GRID|   Bounds   2            -18      17                Points:          36
 RS_GRID|   Bounds   3            -18      17                Points:          36
 RS_GRID| Real space fully replicated
 RS_GRID| Group size                                                           1

 DISTRIBUTION OF THE PARTICLES (ROWS)
              Process row      Number of particles         Number of matrix rows
                        0                        1                            -1
                        1                        1                            -1
                        2                        1                            -1
                        3                        1                            -1
                        4                        1                            -1
                        5                        1                            -1
                        6                        2                            -1
                      Sum                        8                            -1

 DISTRIBUTION OF THE PARTICLES (COLUMNS)
              Process col      Number of particles      Number of matrix columns
                        0                        1                            -1
                        1                        1                            -1
                        2                        1                            -1
                        3                        1                            -1
                        4                        1                            -1
                        5                        1                            -1
                        6                        2                            -1
                      Sum                        8                            -1

 *******************************************************************************
 ***                     STARTING GEOMETRY OPTIMIZATION                      ***
 ***                                   BFGS                                  ***
 *******************************************************************************

 DISTRIBUTION OF THE NEIGHBOR LISTS
              Total number of particle pairs:                                 55
              Total number of matrix elements:                             11839
              Average number of particle pairs:                                2
              Maximum number of particle pairs:                                7
              Average number of matrix element:                              242
              Maximum number of matrix elements:                            4375


 DISTRIBUTION OF THE OVERLAP MATRIX
              Number  of non-zero blocks:                                     36
              Percentage non-zero blocks:                                 100.00
              Average number of blocks per CPU:                                1
              Maximum number of blocks per CPU:                                3
              Average number of matrix elements per CPU:                     124
              Maximum number of matrix elements per CPU:                     635

 Spin 1

 Number of electrons:                                                         21
 Number of occupied orbitals:                                                 21
 Number of molecular orbitals:                                                21

 Spin 2

 Number of electrons:                                                         20
 Number of occupied orbitals:                                                 20
 Number of molecular orbitals:                                                20

 Number of orbital functions:                                                100
 Number of independent orbital functions:                                    100

 Extrapolation method: initial_guess

 Atomic guess: The first density matrix is obtained in terms of atomic orbitals
               and electronic configurations assigned to each atomic kind

 Guess for atomic kind: Cu

 Electronic structure
    Total number of core electrons                                         18.00
    Total number of valence electrons                                      11.00
    Total number of electrons                                              29.00
    Multiplicity                                                   not specified
    S   [  2.00  2.00  2.00] 1.00
    P   [  6.00  6.00]
    D     10.00
 

 *******************************************************************************
                  Iteration          Convergence                     Energy [au]
 *******************************************************************************
                          1         1.34628                     -47.026614018559
                          2         18.7151                     -34.210324963570
                          3         5.09582                     -46.669499324698
                          4        0.374284                     -47.674645733903
                          5        0.427710                     -47.678202772581
                          6        0.222679                     -47.687066085570
                          7        0.886961E-02                 -47.690485224550
                          8        0.122938                     -47.689443403488
                          9        0.163195E-02                 -47.690623675365
                         10        0.461023E-02                 -47.690622278001
                         11        0.244097E-02                 -47.690623427448
                         12        0.760967E-04                 -47.690623875160
                         13        0.592769E-04                 -47.690623875331
                         14        0.185543E-06                 -47.690623875596

 Energy components [Hartree]           Total Energy ::          -47.690623875596
                                        Band Energy ::           -1.733901985829
                                     Kinetic Energy ::           70.782180775588
                                   Potential Energy ::         -118.472804651184
                                      Virial (-V/T) ::            1.673765958509
                                        Core Energy ::          -88.493777294115
                                          XC Energy ::           -7.514089005747
                                     Coulomb Energy ::           48.317242424266
                       Total Pseudopotential Energy ::         -159.367714000828
                       Local Pseudopotential Energy ::         -110.592889348310
                    Nonlocal Pseudopotential Energy ::          -48.774824652518
                                        Confinement ::            0.917559311252

 Orbital energies  State     L     Occupation   Energy[a.u.]          Energy[eV]

                       1     0          1.000      -0.138206           -3.760775
 
                       1     2         10.000      -0.159570           -4.342110
 

 Total Electron Density at R=0:                                         0.000061

 Guess for atomic kind: O

 Electronic structure
    Total number of core electrons                                          2.00
    Total number of valence electrons                                       6.00
    Total number of electrons                                               8.00
    Multiplicity                                                   not specified
    S   [  2.00] 2.00
    P      4.00
 

 *******************************************************************************
                  Iteration          Convergence                     Energy [au]
 *******************************************************************************
                          1         1.67054                     -14.836051221656
                          2         2.12470                     -14.897900780399
                          3        0.100150                     -15.654295189160
                          4        0.189307E-01                 -15.655828842238
                          5        0.464435E-02                 -15.655882433232
                          6        0.259395E-02                 -15.655884790195
                          7        0.516014E-04                 -15.655885857622
                          8        0.157374E-05                 -15.655885858066
                          9        0.783512E-06                 -15.655885858066

 Energy components [Hartree]           Total Energy ::          -15.655885858066
                                        Band Energy ::           -2.983129541149
                                     Kinetic Energy ::           11.754767937471
                                   Potential Energy ::          -27.410653795537
                                      Virial (-V/T) ::            2.331875366774
                                        Core Energy ::          -26.153524299614
                                          XC Energy ::           -3.157392735430
                                     Coulomb Energy ::           13.655031176977
                       Total Pseudopotential Energy ::          -37.943031004163
                       Local Pseudopotential Energy ::          -39.220423834999
                    Nonlocal Pseudopotential Energy ::            1.277392830837
                                        Confinement ::            0.347387670777

 Orbital energies  State     L     Occupation   Energy[a.u.]          Energy[eV]

                       1     0          2.000      -0.861523          -23.443221
 
                       1     1          4.000      -0.315021           -8.572160
 

 Total Electron Density at R=0:                                         0.000093

 Guess for atomic kind: H

 Electronic structure
    Total number of core electrons                                          0.00
    Total number of valence electrons                                       1.00
    Total number of electrons                                               1.00
    Multiplicity                                                   not specified
    S      1.00
 

 *******************************************************************************
                  Iteration          Convergence                     Energy [au]
 *******************************************************************************
                          1        0.250972E-02                  -0.375256815885
                          2        0.570752E-04                  -0.375258666164
                          3        0.832405E-09                  -0.375258667122

 Energy components [Hartree]           Total Energy ::           -0.375258667122
                                        Band Energy ::           -0.076317618391
                                     Kinetic Energy ::            0.771356566341
                                   Potential Energy ::           -1.146615233463
                                      Virial (-V/T) ::            1.486491829455
                                        Core Energy ::           -0.456090715790
                                          XC Energy ::           -0.314218627334
                                     Coulomb Energy ::            0.395050676003
                       Total Pseudopotential Energy ::           -1.238482237174
                       Local Pseudopotential Energy ::           -1.238482237174
                    Nonlocal Pseudopotential Energy ::            0.000000000000
                                        Confinement ::            0.110349550431

 Orbital energies  State     L     Occupation   Energy[a.u.]          Energy[eV]

                       1     0          1.000      -0.076318           -2.076708
 

 Total Electron Density at R=0:                                         0.425022

 Guess for atomic kind: C

 Electronic structure
    Total number of core electrons                                          2.00
    Total number of valence electrons                                       4.00
    Total number of electrons                                               6.00
    Multiplicity                                                   not specified
    S   [  2.00] 2.00
    P      2.00
 

 *******************************************************************************
                  Iteration          Convergence                     Energy [au]
 *******************************************************************************
                          1        0.457038                      -5.151105664215
                          2        0.157450                      -5.235617431356
                          3        0.130137E-02                  -5.246564342251
                          4        0.531061E-03                  -5.246565033610
                          5        0.605965E-04                  -5.246565167704
                          6        0.323545E-04                  -5.246565168968
                          7        0.365472E-07                  -5.246565169473

 Energy components [Hartree]           Total Energy ::           -5.246565169473
                                        Band Energy ::           -1.058732656762
                                     Kinetic Energy ::            3.518928154187
                                   Potential Energy ::           -8.765493323660
                                      Virial (-V/T) ::            2.490955467002
                                        Core Energy ::           -8.429377161979
                                          XC Energy ::           -1.450183339326
                                     Coulomb Energy ::            4.632995331832
                       Total Pseudopotential Energy ::          -11.978048785149
                       Local Pseudopotential Energy ::          -12.816738149676
                    Nonlocal Pseudopotential Energy ::            0.838689364526
                                        Confinement ::            0.297434689834

 Orbital energies  State     L     Occupation   Energy[a.u.]          Energy[eV]

                       1     0          2.000      -0.410911          -11.181458
 
                       1     1          2.000      -0.118455           -3.223332
 

 Total Electron Density at R=0:                                         0.001337

 Spin 1
 Re-scaling the density matrix to get the right number of electrons for spin 1
                  # Electrons              Trace(P)               Scaling factor
                           21                20.500                        1.024

 Spin 2
 Re-scaling the density matrix to get the right number of electrons for spin 2
                  # Electrons              Trace(P)               Scaling factor
                           20                20.500                        0.976


 SCF WAVEFUNCTION OPTIMIZATION

  ----------------------------------- OT ---------------------------------------
  Minimizer      : DIIS                : direct inversion
                                         in the iterative subspace
                                         using   7 DIIS vectors
                                         safer DIIS on
  Preconditioner : FULL_ALL            : diagonalization, state selective
  Precond_solver : DEFAULT
  stepsize       :    0.15000000                  energy_gap     :    0.08000000
  eps_taylor     :   0.10000E-15                  max_taylor     :             4
  ----------------------------------- OT ---------------------------------------

  Step     Update method      Time    Convergence         Total energy    Change
  ------------------------------------------------------------------------------
     1 OT DIIS     0.15E+00    0.8     0.08966506      -115.8657044756 -1.16E+02
     2 OT DIIS     0.15E+00    0.7     0.09237242      -116.9805503432 -1.11E+00
     3 OT DIIS     0.15E+00    0.7     0.04277574      -118.0173994278 -1.04E+00
     4 OT DIIS     0.15E+00    0.7     0.03141085      -118.3613378153 -3.44E-01
     5 OT DIIS     0.15E+00    0.7     0.01724388      -118.5652077376 -2.04E-01
     6 OT DIIS     0.15E+00    0.7     0.01132106      -118.6917201759 -1.27E-01
     7 OT DIIS     0.15E+00    0.7     0.01020349      -118.7335839886 -4.19E-02
     8 OT DIIS     0.15E+00    0.8     0.00665012      -118.7584095463 -2.48E-02
     9 OT DIIS     0.15E+00    0.8     0.00460277      -118.7881695126 -2.98E-02
    10 OT DIIS     0.15E+00    0.7     0.00369413      -118.8024949546 -1.43E-02
    11 OT DIIS     0.15E+00    0.8     0.00289057      -118.8138420364 -1.13E-02
    12 OT DIIS     0.15E+00    0.7     0.00241557      -118.8223315282 -8.49E-03
    13 OT DIIS     0.15E+00    0.7     0.00201251      -118.8286339990 -6.30E-03
    14 OT DIIS     0.15E+00    0.7     0.00144451      -118.8330591941 -4.43E-03
    15 OT DIIS     0.15E+00    0.7     0.00125578      -118.8360880145 -3.03E-03
    16 OT DIIS     0.15E+00    0.7     0.00108724      -118.8369974018 -9.09E-04
    17 OT DIIS     0.15E+00    0.7     0.00086062      -118.8380245765 -1.03E-03
    18 OT DIIS     0.15E+00    0.7     0.00064547      -118.8387737208 -7.49E-04
    19 OT DIIS     0.15E+00    0.7     0.00056582      -118.8392116935 -4.38E-04
    20 OT DIIS     0.15E+00    0.8     0.00048593      -118.8396978055 -4.86E-04
    21 OT DIIS     0.15E+00    0.8     0.00044467      -118.8400296569 -3.32E-04
    22 OT DIIS     0.15E+00    0.7     0.00040655      -118.8403317758 -3.02E-04
    23 OT DIIS     0.15E+00    0.7     0.00038191      -118.8406626704 -3.31E-04
    24 OT DIIS     0.15E+00    0.7     0.00036760      -118.8408403048 -1.78E-04
    25 OT DIIS     0.15E+00    0.8     0.00034783      -118.8410079682 -1.68E-04
    26 OT DIIS     0.15E+00    0.7     0.00033783      -118.8412469706 -2.39E-04
    27 OT DIIS     0.15E+00    0.7     0.00033291      -118.8414460182 -1.99E-04
    28 OT DIIS     0.15E+00    0.7     0.00033219      -118.8415227504 -7.67E-05
    29 OT DIIS     0.15E+00    0.7     0.00033229      -118.8415758841 -5.31E-05
    30 OT SD       0.15E+00    0.7     0.00033217      -118.8415824740 -6.59E-06
    31 OT SD       0.15E+00    0.7     0.00033302      -118.8416503632 -6.79E-05
    32 OT SD       0.15E+00    0.7     0.00033412      -118.8417186213 -6.83E-05
    33 OT SD       0.15E+00    0.7     0.00033538      -118.8417873333 -6.87E-05
    34 OT SD       0.15E+00    0.7     0.00033680      -118.8418565413 -6.92E-05
    35 OT SD       0.15E+00    0.7     0.00033853      -118.8419262601 -6.97E-05
    36 OT SD       0.15E+00    0.7     0.00034128      -118.8419964353 -7.02E-05
    37 OT SD       0.15E+00    0.7     0.00034773      -118.8420668649 -7.04E-05
    38 OT SD       0.15E+00    0.7     0.00036744      -118.8421367744 -6.99E-05
    39 OT DIIS     0.15E+00    0.8     0.00043027      -118.8422033683 -6.66E-05
    40 OT SD       0.15E+00    0.7     0.00057983      -118.8424330935 -2.30E-04
    41 OT SD       0.15E+00    0.8     0.00050605      -118.8425518694 -1.19E-04
    42 OT SD       0.15E+00    0.7     0.00054514      -118.8426357328 -8.39E-05
    43 OT SD       0.15E+00    0.7     0.00065726      -118.8427053787 -6.96E-05
    44 OT SD       0.15E+00    0.7     0.00092663      -118.8427418992 -3.65E-05
    45 OT SD       0.15E+00    0.7     0.00152964      -118.8426659117  7.60E-05
    46 OT DIIS     0.15E+00    0.7     0.00277028      -118.8421802487  4.86E-04
    47 OT DIIS     0.15E+00    0.7     0.00034159      -118.8435648795 -1.38E-03
    48 OT DIIS     0.15E+00    0.7     0.00031862      -118.8438798278 -3.15E-04
    49 OT DIIS     0.15E+00    0.7     0.00026595      -118.8444469540 -5.67E-04
[...]
     2 OT DIIS     0.15E+00    0.8     0.00003662      -119.0651421849 -1.40E-06
     3 OT DIIS     0.15E+00    0.8     0.00000819      -119.0651435925 -1.41E-06
     4 OT DIIS     0.15E+00    0.8     0.00000438      -119.0651436147 -2.22E-08
     5 OT DIIS     0.15E+00    0.8     0.00000311      -119.0651436365 -2.18E-08
     6 OT DIIS     0.15E+00    0.8     0.00000163      -119.0651436569 -2.04E-08
     7 OT DIIS     0.15E+00    0.8     0.00000128      -119.0651436598 -2.90E-09
     8 OT DIIS     0.15E+00    0.8     0.00000095      -119.0651436623 -2.46E-09

  *** SCF run converged in     8 steps ***


  Electronic density on regular grids:        -40.9999999982        0.0000000018
  Core density on regular grids:               40.9999999976       -0.0000000024
  Total charge density on r-space grids:       -0.0000000006
  Total charge density g-space grids:          -0.0000000006

  Overlap energy of the core charge distribution:               0.00000262225029
  Self energy of the core charge distribution:               -246.66355737679996
  Core Hamiltonian energy:                                     73.93803802285355
  Hartree energy:                                              77.66814659223448
  Exchange-correlation energy:                                -24.00301107077264
  Dispersion energy:                                           -0.00476245203098

  Total energy:                                              -119.06514366226527

  outer SCF iter =    1 RMS gradient =   0.95E-06 energy =       -119.0651436623
  outer SCF loop converged in   1 iterations or    8 steps


  Integrated absolute spin density  :                               1.1172270204
  Ideal and single determinant S**2 :                    0.750000       0.755150

 ENERGY| Total FORCE_EVAL ( QS ) energy (a.u.):             -119.065143662265271


 -------------------------------------------------------------------------------
 -                                                                             -
 -                                DBCSR STATISTICS                             -
 -                                                                             -
 -------------------------------------------------------------------------------
 COUNTER                                    TOTAL       BLAS       SMM       ACC
 flops     5 x     5 x    20             14427000     100.0%      0.0%      0.0%
 flops     5 x     5 x    21             15148350     100.0%      0.0%      0.0%
 flops    10 x    20 x    10             37432000     100.0%      0.0%      0.0%
 flops    10 x    21 x    10             39303600     100.0%      0.0%      0.0%
 flops     5 x    20 x     5             44356000     100.0%      0.0%      0.0%
 flops     5 x    21 x     5             45893400     100.0%      0.0%      0.0%
 flops    25 x     5 x    20             48090000     100.0%      0.0%      0.0%
 flops    25 x     5 x    21             50494500     100.0%      0.0%      0.0%
 flops     5 x    13 x    20             62517000     100.0%      0.0%      0.0%
 flops    13 x     5 x    20             62517000     100.0%      0.0%      0.0%
 flops    25 x    13 x    20             62517000     100.0%      0.0%      0.0%
 flops     5 x    13 x    21             65642850     100.0%      0.0%      0.0%
 flops    13 x     5 x    21             65642850     100.0%      0.0%      0.0%
 flops    25 x    13 x    21             65642850     100.0%      0.0%      0.0%
 flops    25 x    20 x    10             93580000     100.0%      0.0%      0.0%
 flops    10 x    20 x    25             93580000     100.0%      0.0%      0.0%
 flops    25 x    21 x    10             98259000     100.0%      0.0%      0.0%
 flops    10 x    21 x    25             98259000     100.0%      0.0%      0.0%
 flops    25 x    20 x     5            110890000     100.0%      0.0%      0.0%
 flops     5 x    20 x    25            110890000     100.0%      0.0%      0.0%
 flops    25 x    21 x     5            114733500     100.0%      0.0%      0.0%
 flops     5 x    21 x    25            114733500     100.0%      0.0%      0.0%
 flops    25 x    25 x    20            120225000     100.0%      0.0%      0.0%
 flops    25 x    25 x    21            126236250     100.0%      0.0%      0.0%
 flops    20 x    20 x    10            145096000     100.0%      0.0%      0.0%
 flops    21 x    21 x    10            159968340     100.0%      0.0%      0.0%
 flops    10 x    20 x    20            180984000     100.0%      0.0%      0.0%
 flops    10 x    21 x    21            199534860     100.0%      0.0%      0.0%
 flops    10 x    20 x    13            243308000     100.0%      0.0%      0.0%
 flops    13 x    20 x    10            243308000     100.0%      0.0%      0.0%
 flops    13 x    25 x    20            250068000     100.0%      0.0%      0.0%
 flops    10 x    21 x    13            255473400     100.0%      0.0%      0.0%
 flops    13 x    21 x    10            255473400     100.0%      0.0%      0.0%
 flops    13 x    25 x    21            262571400     100.0%      0.0%      0.0%
 flops     5 x    20 x    13            288314000     100.0%      0.0%      0.0%
 flops    13 x    20 x     5            288314000     100.0%      0.0%      0.0%
 flops     5 x    21 x    13            298307100     100.0%      0.0%      0.0%
 flops    13 x    21 x     5            298307100     100.0%      0.0%      0.0%
 flops    20 x    20 x    25            362740000     100.0%      0.0%      0.0%
 flops    21 x    21 x    25            399920850     100.0%      0.0%      0.0%
 flops    25 x    20 x    20            452460000     100.0%      0.0%      0.0%
 flops    13 x    13 x    20            487632600     100.0%      0.0%      0.0%
 flops    25 x    21 x    21            498837150     100.0%      0.0%      0.0%
 flops    25 x    20 x    25            511175000     100.0%      0.0%      0.0%
 flops    13 x    13 x    21            512014230     100.0%      0.0%      0.0%
 flops    25 x    21 x    25            532481250     100.0%      0.0%      0.0%
 flops    20 x    20 x    20            612368000     100.0%      0.0%      0.0%
 flops    21 x    21 x    21            716301306     100.0%      0.0%      0.0%
 flops    20 x    20 x    13            943124000     100.0%      0.0%      0.0%
 flops    21 x    21 x    13           1039794210     100.0%      0.0%      0.0%
 flops    13 x    20 x    20           1176396000     100.0%      0.0%      0.0%
 flops    13 x    21 x    21           1296976590     100.0%      0.0%      0.0%
 flops    25 x    20 x    13           1329055000     100.0%      0.0%      0.0%
 flops    13 x    20 x    25           1329055000     100.0%      0.0%      0.0%
 flops    25 x    21 x    13           1384451250     100.0%      0.0%      0.0%
 flops    13 x    21 x    25           1384451250     100.0%      0.0%      0.0%
 flops    13 x    20 x    13           3455543000     100.0%      0.0%      0.0%
 flops    13 x    21 x    13           3599573250     100.0%      0.0%      0.0%
 flops inhomo. stacks                           0       0.0%      0.0%      0.0%
 flops total                        27.154388E+09     100.0%      0.0%      0.0%
 flops max/rank                      9.751696E+09     100.0%      0.0%      0.0%
 matmuls inhomo. stacks                         0       0.0%      0.0%      0.0%
 matmuls total                            3319942     100.0%      0.0%      0.0%
 number of processed stacks               2922376     100.0%      0.0%      0.0%
 average stack size                                     1.1       0.0       0.0
 marketing flops                    28.861000E+09
 -------------------------------------------------------------------------------
 # multiplications                         209202
 max memory usage/rank             377.171968E+06
 # max total images/rank                        1
 # max 3D layers                                1
 # MPI messages exchanged               123010776
 MPI messages size (bytes):
  total size                        40.981832E+09
  min size                           0.000000E+00
  max size                           5.000000E+03
  average size                     333.156433E+00
 MPI breakdown and total messages size (bytes):
             size <=      128           102374736                        0
       128 < size <=     8192            20636040              41062940592
      8192 < size <=    32768                   0                        0
     32768 < size <=   131072                   0                        0
    131072 < size <=  4194304                   0                        0
   4194304 < size <= 16777216                   0                        0
  16777216 < size                               0                        0
 -------------------------------------------------------------------------------
 
 MEMORY| Estimated peak process memory [MiB]                                 360

 -------------------------------------------------------------------------------
 ----                             MULTIGRID INFO                            ----
 -------------------------------------------------------------------------------
 count for grid        1:        1344406          cutoff [a.u.]          200.00
 count for grid        2:         565097          cutoff [a.u.]           66.67
 count for grid        3:         361029          cutoff [a.u.]           22.22
 count for grid        4:         113977          cutoff [a.u.]            7.41
 total gridlevel count  :        2384509

 -------------------------------------------------------------------------------
 -                                                                             -
 -                         MESSAGE PASSING PERFORMANCE                         -
 -                                                                             -
 -------------------------------------------------------------------------------

 ROUTINE             CALLS      AVE VOLUME [Bytes]
 MP_Group            11735
 MP_Bcast           119187                   6919.
 MP_Allreduce       816221                     34.
 MP_Sync              6141
 MP_Alltoall        917407                1040454.
 MP_SendRecv         30912                     79.
 MP_ISendRecv      1784640                  37952.
 MP_Wait          19172370
 MP_comm_split        6137
 MP_ISend          7993783                  34243.
 MP_IRecv          7993783                  34075.
 MP_Recv              4316                   2097.
 MP_Memory         8160128
 -------------------------------------------------------------------------------


 -------------------------------------------------------------------------------
 -                                                                             -
 -                           R E F E R E N C E S                               -
 -                                                                             -
 -------------------------------------------------------------------------------
 
 CP2K version 5.1, the CP2K developers group (2017).
 CP2K is freely available from https://www.cp2k.org/ .

 Schuett, Ole; Messmer, Peter; Hutter, Juerg; VandeVondele, Joost. 
 Electronic Structure Calculations on Graphics Processing Units, John Wiley & Sons, Ltd, 173-190 (2016). 
 GPU-Accelerated Sparse Matrix-Matrix Multiplication for Linear Scaling Density Functional Theory.
 http://dx.doi.org/10.1002/9781118670712.ch8


 Borstnik, U; VandeVondele, J; Weber, V; Hutter, J. 
 PARALLEL COMPUTING, 40 (5-6), 47-58 (2014). 
 Sparse matrix multiplication: The distributed block-compressed sparse
 row library.
 http://dx.doi.org/10.1016/j.parco.2014.03.012


 Hutter, J; Iannuzzi, M; Schiffmann, F; VandeVondele, J. 
 WILEY INTERDISCIPLINARY REVIEWS-COMPUTATIONAL MOLECULAR SCIENCE, 4 (1), 15-25 (2014). 
 CP2K: atomistic simulations of condensed matter systems.
 http://dx.doi.org/10.1002/wcms.1159


 Grimme, S; Ehrlich, S; Goerigk, L. 
 JOURNAL OF COMPUTATIONAL CHEMISTRY, 32, 1456 (2011). 
 Effect of the damping function in dispersion corrected density functional theory.
 http://dx.doi.org/10.1002/jcc.21759


 Grimme, S; Antony, J; Ehrlich, S; Krieg, H. 
 JOURNAL OF CHEMICAL PHYSICS, 132 (15), 154104 (2010). 
 A consistent and accurate ab initio parametrization of density
 functional dispersion correction (DFT-D) for the 94 elements H-Pu.
 http://dx.doi.org/10.1063/1.3382344


 VandeVondele, J; Hutter, J. 
 JOURNAL OF CHEMICAL PHYSICS, 127 (11), 114105 (2007). 
 Gaussian basis sets for accurate calculations on molecular systems in
 gas and condensed phases.
 http://dx.doi.org/10.1063/1.2770708


 Krack, M. 
 THEORETICAL CHEMISTRY ACCOUNTS, 114 (1-3), 145-152 (2005). 
 Pseudopotentials for H to Kr optimized for gradient-corrected
 exchange-correlation functionals.
 http://dx.doi.org/10.1007/s00214-005-0655-y


 VandeVondele, J; Krack, M; Mohamed, F; Parrinello, M; Chassaing, T;
 Hutter, J. COMPUTER PHYSICS COMMUNICATIONS, 167 (2), 103-128 (2005). 
 QUICKSTEP: Fast and accurate density functional calculations using a
 mixed Gaussian and plane waves approach.
 http://dx.doi.org/10.1016/j.cpc.2004.12.014


 Frigo, M; Johnson, SG. 
 PROCEEDINGS OF THE IEEE, 93 (2), 216-231 (2005). 
 The design and implementation of FFTW3.
 http://dx.doi.org/10.1109/JPROC.2004.840301


 Kolafa, J. 
 JOURNAL OF COMPUTATIONAL CHEMISTRY, 25 (3), 335-342 (2004). 
 Time-reversible always stable predictor-corrector method for molecular dynamics of polarizable molecules.
 http://dx.doi.org/10.1002/jcc.10385


 VandeVondele, J; Hutter, J. 
 JOURNAL OF CHEMICAL PHYSICS, 118 (10), 4365-4369 (2003). 
 An efficient orbital transformation method for electronic structure
 calculations.
 http://dx.doi.org/10.1063/1.1543154


 Hartwigsen, C; Goedecker, S; Hutter, J. 
 PHYSICAL REVIEW B, 58 (7), 3641-3662 (1998). 
 Relativistic separable dual-space Gaussian pseudopotentials from H to Rn.
 http://dx.doi.org/10.1103/PhysRevB.58.3641


 Lippert, G; Hutter, J; Parrinello, M. 
 MOLECULAR PHYSICS, 92 (3), 477-487 (1997). 
 A hybrid Gaussian and plane wave density functional scheme.
 http://dx.doi.org/10.1080/002689797170220


 Perdew, JP; Burke, K; Ernzerhof, M. 
 PHYSICAL REVIEW LETTERS, 77 (18), 3865-3868 (1996). 
 Generalized gradient approximation made simple.
 http://dx.doi.org/10.1103/PhysRevLett.77.3865


 Goedecker, S; Teter, M; Hutter, J. 
 PHYSICAL REVIEW B, 54 (3), 1703-1710 (1996). 
 Separable dual-space Gaussian pseudopotentials.
 http://dx.doi.org/10.1103/PhysRevB.54.1703


 -------------------------------------------------------------------------------
 -                                                                             -
 -                                T I M I N G                                  -
 -                                                                             -
 -------------------------------------------------------------------------------
 SUBROUTINE                       CALLS  ASD         SELF TIME        TOTAL TIME
                                MAXIMUM       AVERAGE  MAXIMUM  AVERAGE  MAXIMUM
 CP2K                                 1  1.0    0.074    0.098 3626.280 3626.286
 cp_geo_opt                           1  2.0    0.003    0.008 3625.316 3625.321
 geoopt_bfgs                          1  3.0    0.038    0.090 3625.313 3625.317
 cp_eval_at                         162  4.0    0.016    0.034 3623.800 3623.810
 qs_forces                          161  5.0    0.023    0.040 3617.325 3617.334
 qs_energies                        162  6.0    0.025    0.044 3521.495 3521.507
 scf_env_do_scf                     162  7.0    0.019    0.088 3475.073 3475.076
 scf_env_do_scf_inner_loop         4486  8.0    0.165    0.651 3355.878 3355.948
 rebuild_ks_matrix                 4647  9.9    0.011    0.012 2561.408 2561.728
 qs_ks_build_kohn_sham_matrix      4647 10.9    0.512    0.570 2561.397 2561.717
 qs_ks_update_qs_env               4679  9.0    0.036    0.049 2461.283 2461.627
 pw_transfer                     162817 13.6    9.547   13.415 1957.158 2110.737
 fft_wrap_pw1pw2                 153523 14.7    1.166    1.560 1939.695 2095.811
 fft_wrap_pw1pw2_200              97753 15.8  106.851  131.926 1859.432 2014.754
 fft3d_ps                        153523 16.7  766.782  843.587 1624.036 1837.868
 qs_vxc_create                     4647 11.9    0.075    0.095 1711.449 1725.278
 xc_vxc_pw_create                  4647 12.9  137.796  150.959 1711.374 1725.218
 mp_alltoall_z22v                153523 18.7  698.628 1133.626  698.628 1133.626
 qs_rho_update_rho                 4648  9.0    0.030    0.036  840.979  841.303
 calculate_rho_elec                9296 10.0   16.142   88.289  840.949  841.274
 rs_pw_transfer                   74683 13.4    0.611    0.825  808.162  817.715
 xc_rho_set_and_dset_create        4647 13.9   14.450   17.036  730.890  814.048
 density_rs2pw                     9296 11.0    0.411    0.506  763.916  777.300
 yz_to_x                          65226 17.2   62.940   73.790  444.559  712.696
 sum_up_and_integrate              4647 11.9    9.927   11.250  702.516  703.110
 integrate_v_rspace                9294 12.9    7.709   64.432  692.570  695.605
 potential_pw2rs                   9294 13.9    0.830    0.905  625.187  628.293
 x_to_yz                          69707 18.2   89.566  103.237  406.028  533.237
 mp_waitany                     2137671 15.4  253.456  358.950  253.456  358.950
 rs_pw_transfer_PW2RS_200          9455 15.8  163.761  201.885  269.050  296.553
 rs_pw_transfer_RS2PW_200          9458 13.0  157.422  183.269  272.576  287.550
 xc_functional_eval                4647 14.9    0.038    0.056  125.994  206.609
 pbe_lsd_eval                      4647 15.9  125.956  206.569  125.956  206.569
 qs_scf_new_mos                    4486  9.0    0.021    0.027  185.912  186.171
 qs_scf_loop_do_ot                 4486 10.0    0.051    0.139  185.891  186.151
 ot_scf_mini                       4486 11.0    0.190    0.312  178.555  178.641
 dbcsr_multiply_generic          209202 14.1    5.074    6.176  155.093  157.508
 rs_pw_transfer_PW2RS_70           9294 15.9   39.368   50.021   93.623  128.671
 pw_gather_p                      74522 16.1  110.571  124.714  110.571  124.714
 init_scf_loop                      193  8.0    0.007    0.012  118.783  118.807
 pw_scatter_p                     79001 17.3   93.067  112.265   93.067  112.265
 ot_mini                           4486 12.0    0.031    0.035  111.123  111.254
 qs_ks_update_qs_env_forces         161  6.0    0.001    0.001  101.226  101.251
 pw_derive                        56247 14.4   75.799   95.463   75.799   95.463
 qs_ot_get_derivative              8972 13.0    0.046    0.058   92.136   92.407
 mp_waitall_1                   ******* 17.4   69.560   90.539   69.560   90.539
 mp_alltoall_d11v                160077 15.6   72.619   88.680   72.619   88.680
 rs_grid_zero                     56095 13.0   74.496   87.425   74.496   87.425
 rs_distribute_matrix             18912 12.4    0.315    0.802   67.870   83.701
 mp_sum_d                        212178 14.7   30.182   80.508   30.182   80.508
 rs_pw_transfer_RS2PW_70           9296 13.0   41.976   54.192   74.812   78.994
 fft_wrap_pw1pw2_70               18590 15.5    3.131    4.487   57.606   74.997
 -------------------------------------------------------------------------------

 The number of warnings for this run is : 2
 
 -------------------------------------------------------------------------------
  **** **** ******  **  PROGRAM ENDED AT                 2018-10-04 13:33:36.772
 ***** ** ***  *** **   PROGRAM RAN ON                                      g003
 **    ****   ******    PROGRAM RAN BY                                    ongari
 ***** **    ** ** **   PROGRAM PROCESS ID                                  7958
  **** **  *******  **  PROGRAM STOPPED IN /scratch/ongari/proj45_cp2krestart/1_
                                           geoopt_AB_cu
