 DBCSR| Multiplication driver                                               BLAS
 DBCSR| Multrec recursion limit                                              512
 DBCSR| Multiplication stack size                                           1000
 DBCSR| Maximum elements for images                                    UNLIMITED
 DBCSR| Multiplicative factor virtual images                                   1
 DBCSR| Multiplication size stacks                                             3
 DBCSR| Number of 3D layers                                               SINGLE
 DBCSR| Use MPI memory allocation                                              T
 DBCSR| Use RMA algorithm                                                      F
 DBCSR| Use Communication thread                                               T
 DBCSR| Communication thread load                                             87


  **** **** ******  **  PROGRAM STARTED AT               2018-09-28 11:52:58.123
 ***** ** ***  *** **   PROGRAM STARTED ON                                  f210
 **    ****   ******    PROGRAM STARTED BY                                ongari
 ***** **    ** ** **   PROGRAM PROCESS ID                                 21176
  **** **  *******  **  PROGRAM STARTED IN /home/ongari/x_corso_bonella/4_cp2k/5
                                           _water-Ne/1_geoopt

 CP2K| version string:                                          CP2K version 5.1
 CP2K| source code revision number:                                    svn:18091
 CP2K| cp2kflags: libint fftw3 pexsi parallel mpi3 scalapack libderiv_max_am1=5 
 CP2K|            libint_max_am=6
 CP2K| is freely available from                            https://www.cp2k.org/
 CP2K| Program compiled at                          Thu Jul 5 11:15:01 CEST 2018
 CP2K| Program compiled on                                                  f016
 CP2K| Program compiled for                  linux-rhel7-x86_E5v4_Mellanox-intel
 CP2K| Data directory path    /dev/shm/scitasbuild/spack-stage/spack-stage-ZDQwS
 CP2K| Input file name                                          water-Ne_PBE.inp
 
 GLOBAL| Force Environment number                                              1
 GLOBAL| Basis set file name                                      ./BASIS_MOLOPT
 GLOBAL| Potential file name                                    ./GTH_POTENTIALS
 GLOBAL| MM Potential file name                                     MM_POTENTIAL
 GLOBAL| Coordinate file name                                      __STD_INPUT__
 GLOBAL| Method name                                                        CP2K
 GLOBAL| Project name                                                       cp2k
 GLOBAL| Preferred FFT library                                             FFTW3
 GLOBAL| Preferred diagonalization lib.                                       SL
 GLOBAL| Run type                                                        GEO_OPT
 GLOBAL| All-to-all communication in single precision                          F
 GLOBAL| FFTs using library dependent lengths                                  F
 GLOBAL| Global print level                                               MEDIUM
 GLOBAL| Total number of message passing processes                            25
 GLOBAL| Number of threads for this process                                    1
 GLOBAL| This output is from process                                           0
 GLOBAL| CPU model name :  Intel(R) Xeon(R) CPU E5-2690 v4 @ 2.60GHz

 MEMORY| system memory details [Kb]
 MEMORY|                        rank 0           min           max       average
 MEMORY| MemTotal            131627068     131627068     131627068     131627068
 MEMORY| MemFree             116172184     116172184     116172184     116172184
 MEMORY| Buffers                  2932          2932          2932          2932
 MEMORY| Cached                 163120        163120        163120        163120
 MEMORY| Slab                  1306180       1306180       1306180       1306180
 MEMORY| SReclaimable            50360         50360         50360         50360
 MEMORY| MemLikelyFree       116388596     116388596     116388596     116388596


 *** Fundamental physical constants (SI units) ***

 *** Literature: B. J. Mohr and B. N. Taylor,
 ***             CODATA recommended values of the fundamental physical
 ***             constants: 2006, Web Version 5.1
 ***             http://physics.nist.gov/constants

 Speed of light in vacuum [m/s]                             2.99792458000000E+08
 Magnetic constant or permeability of vacuum [N/A**2]       1.25663706143592E-06
 Electric constant or permittivity of vacuum [F/m]          8.85418781762039E-12
 Planck constant (h) [J*s]                                  6.62606896000000E-34
 Planck constant (h-bar) [J*s]                              1.05457162825177E-34
 Elementary charge [C]                                      1.60217648700000E-19
 Electron mass [kg]                                         9.10938215000000E-31
 Electron g factor [ ]                                     -2.00231930436220E+00
 Proton mass [kg]                                           1.67262163700000E-27
 Fine-structure constant                                    7.29735253760000E-03
 Rydberg constant [1/m]                                     1.09737315685270E+07
 Avogadro constant [1/mol]                                  6.02214179000000E+23
 Boltzmann constant [J/K]                                   1.38065040000000E-23
 Atomic mass unit [kg]                                      1.66053878200000E-27
 Bohr radius [m]                                            5.29177208590000E-11

 *** Conversion factors ***

 [u] -> [a.u.]                                              1.82288848426455E+03
 [Angstrom] -> [Bohr] = [a.u.]                              1.88972613288564E+00
 [a.u.] = [Bohr] -> [Angstrom]                              5.29177208590000E-01
 [a.u.] -> [s]                                              2.41888432650478E-17
 [a.u.] -> [fs]                                             2.41888432650478E-02
 [a.u.] -> [J]                                              4.35974393937059E-18
 [a.u.] -> [N]                                              8.23872205491840E-08
 [a.u.] -> [K]                                              3.15774647902944E+05
 [a.u.] -> [kJ/mol]                                         2.62549961709828E+03
 [a.u.] -> [kcal/mol]                                       6.27509468713739E+02
 [a.u.] -> [Pa]                                             2.94210107994716E+13
 [a.u.] -> [bar]                                            2.94210107994716E+08
 [a.u.] -> [atm]                                            2.90362800883016E+08
 [a.u.] -> [eV]                                             2.72113838565563E+01
 [a.u.] -> [Hz]                                             6.57968392072181E+15
 [a.u.] -> [1/cm] (wave numbers)                            2.19474631370540E+05
 [a.u./Bohr**2] -> [1/cm]                                   5.14048714338585E+03
 

 CELL_TOP| Volume [angstrom^3]:                                         1000.000
 CELL_TOP| Vector a [angstrom    10.000     0.000     0.000    |a| =      10.000
 CELL_TOP| Vector b [angstrom     0.000    10.000     0.000    |b| =      10.000
 CELL_TOP| Vector c [angstrom     0.000     0.000    10.000    |c| =      10.000
 CELL_TOP| Angle (b,c), alpha [degree]:                                   90.000
 CELL_TOP| Angle (a,c), beta  [degree]:                                   90.000
 CELL_TOP| Angle (a,b), gamma [degree]:                                   90.000
 CELL_TOP| Numerically orthorhombic:                                         YES
 
 GENERATE|  Preliminary Number of Bonds generated:                             0
 GENERATE|  Achieved consistency in connectivity generation.

 CELL| Volume [angstrom^3]:                                             1000.000
 CELL| Vector a [angstrom]:      10.000     0.000     0.000    |a| =      10.000
 CELL| Vector b [angstrom]:       0.000    10.000     0.000    |b| =      10.000
 CELL| Vector c [angstrom]:       0.000     0.000    10.000    |c| =      10.000
 CELL| Angle (b,c), alpha [degree]:                                       90.000
 CELL| Angle (a,c), beta  [degree]:                                       90.000
 CELL| Angle (a,b), gamma [degree]:                                       90.000
 CELL| Numerically orthorhombic:                                             YES

 CELL_REF| Volume [angstrom^3]:                                         1000.000
 CELL_REF| Vector a [angstrom    10.000     0.000     0.000    |a| =      10.000
 CELL_REF| Vector b [angstrom     0.000    10.000     0.000    |b| =      10.000
 CELL_REF| Vector c [angstrom     0.000     0.000    10.000    |c| =      10.000
 CELL_REF| Angle (b,c), alpha [degree]:                                   90.000
 CELL_REF| Angle (a,c), beta  [degree]:                                   90.000
 CELL_REF| Angle (a,b), gamma [degree]:                                   90.000
 CELL_REF| Numerically orthorhombic:                                         YES

 *******************************************************************************
 *******************************************************************************
 **                                                                           **
 **     #####                         ##              ##                      **
 **    ##   ##            ##          ##              ##                      **
 **   ##     ##                       ##            ######                    **
 **   ##     ##  ##   ##  ##   #####  ##  ##   ####   ##    #####    #####    **
 **   ##     ##  ##   ##  ##  ##      ## ##   ##      ##   ##   ##  ##   ##   **
 **   ##  ## ##  ##   ##  ##  ##      ####     ###    ##   ######   ######    **
 **    ##  ###   ##   ##  ##  ##      ## ##      ##   ##   ##       ##        **
 **     #######   #####   ##   #####  ##  ##  ####    ##    #####   ##        **
 **           ##                                                    ##        **
 **                                                                           **
 **                                                ... make the atoms dance   **
 **                                                                           **
 **            Copyright (C) by CP2K developers group (2000 - 2017)           **
 **                                                                           **
 *******************************************************************************

 DFT| Spin restricted Kohn-Sham (RKS) calculation                            RKS
 DFT| Multiplicity                                                             1
 DFT| Number of spin states                                                    1
 DFT| Charge                                                                   0
 DFT| Self-interaction correction (SIC)                                       NO
 DFT| Cutoffs: density                                              1.000000E-10
 DFT|          gradient                                             1.000000E-10
 DFT|          tau                                                  1.000000E-10
 DFT|          cutoff_smoothing_range                               0.000000E+00
 DFT| XC density smoothing                                                  NONE
 DFT| XC derivatives                                                          PW
 FUNCTIONAL| ROUTINE=NEW
 FUNCTIONAL| PBE:
 FUNCTIONAL| J.P.Perdew, K.Burke, M.Ernzerhof, Phys. Rev. Letter, vol. 77, n 18,
 FUNCTIONAL|  pp. 3865-3868, (1996){spin unpolarized}                           
 vdW POTENTIAL|                                                   Pair Potential
 vdW POTENTIAL|          DFT-D3 (Version 3.1)
 vdW POTENTIAL|          Potential Form: S. Grimme et al, JCP 132: 154104 (2010)
 vdW POTENTIAL|          BJ Damping: S. Grimme et al, JCC 32: 1456 (2011)
 vdW POTENTIAL|          Cutoff Radius [Bohr]:                             20.00
 vdW POTENTIAL|          s6 Scaling Factor:                               1.0000
 vdW POTENTIAL|          a1 Damping Factor:                               0.4289
 vdW POTENTIAL|          s8 Scaling Factor:                               0.7875
 vdW POTENTIAL|          a2 Damping Factor:                               4.4407
 vdW POTENTIAL|          Cutoff for CN calculation:                   0.1000E-05

 QS| Method:                                                                 GPW
 QS| Density plane wave grid type                        NON-SPHERICAL FULLSPACE
 QS| Number of grid levels:                                                    4
 QS| Density cutoff [a.u.]:                                                150.0
 QS| Multi grid cutoff [a.u.]: 1) grid level                               150.0
 QS|                           2) grid level                                50.0
 QS|                           3) grid level                                16.7
 QS|                           4) grid level                                 5.6
 QS| Grid level progression factor:                                          3.0
 QS| Relative density cutoff [a.u.]:                                        25.0
 QS| Consistent realspace mapping and integration 
 QS| Interaction thresholds: eps_pgf_orb:                                1.0E-05
 QS|                         eps_filter_matrix:                          0.0E+00
 QS|                         eps_core_charge:                            1.0E-12
 QS|                         eps_rho_gspace:                             1.0E-10
 QS|                         eps_rho_rspace:                             1.0E-10
 QS|                         eps_gvg_rspace:                             1.0E-05
 QS|                         eps_ppl:                                    1.0E-02
 QS|                         eps_ppnl:                                   1.0E-07


 ATOMIC KIND INFORMATION

  1. Atomic kind: O                                     Number of atoms:       1

     Orbital Basis Set                                        DZVP-MOLOPT-SR-GTH

       Number of orbital shell sets:                                           1
       Number of orbital shells:                                               5
       Number of primitive Cartesian functions:                                5
       Number of Cartesian basis functions:                                   14
       Number of spherical basis functions:                                   13
       Norm type:                                                              2

       Normalised Cartesian orbitals:

                        Set   Shell   Orbital            Exponent    Coefficient

                          1       1    2s               10.389228       0.396646
                                                         3.849621       0.208811
                                                         1.388401      -0.301641
                                                         0.496955      -0.274061
                                                         0.162492      -0.033677

                          1       2    3s               10.389228       0.303673
                                                         3.849621       0.240943
                                                         1.388401      -0.313066
                                                         0.496955      -0.043055
                                                         0.162492       0.213991

                          1       3    3px              10.389228      -1.530415
                                                         3.849621      -1.371928
                                                         1.388401      -0.761951
                                                         0.496955      -0.253695
                                                         0.162492      -0.035541
                          1       3    3py              10.389228      -1.530415
                                                         3.849621      -1.371928
                                                         1.388401      -0.761951
                                                         0.496955      -0.253695
                                                         0.162492      -0.035541
                          1       3    3pz              10.389228      -1.530415
                                                         3.849621      -1.371928
                                                         1.388401      -0.761951
                                                         0.496955      -0.253695
                                                         0.162492      -0.035541

                          1       4    4px              10.389228      -0.565392
                                                         3.849621      -0.038231
                                                         1.388401      -0.382373
                                                         0.496955       0.179070
                                                         0.162492       0.122714
                          1       4    4py              10.389228      -0.565392
                                                         3.849621      -0.038231
                                                         1.388401      -0.382373
                                                         0.496955       0.179070
                                                         0.162492       0.122714
                          1       4    4pz              10.389228      -0.565392
                                                         3.849621      -0.038231
                                                         1.388401      -0.382373
                                                         0.496955       0.179070
                                                         0.162492       0.122714

                          1       5    4dx2             10.389228       1.867377
                                                         3.849621       0.670994
                                                         1.388401       1.353441
                                                         0.496955       0.273538
                                                         0.162492       0.006620
                          1       5    4dxy             10.389228       3.234392
                                                         3.849621       1.162195
                                                         1.388401       2.344229
                                                         0.496955       0.473781
                                                         0.162492       0.011466
                          1       5    4dxz             10.389228       3.234392
                                                         3.849621       1.162195
                                                         1.388401       2.344229
                                                         0.496955       0.473781
                                                         0.162492       0.011466
                          1       5    4dy2             10.389228       1.867377
                                                         3.849621       0.670994
                                                         1.388401       1.353441
                                                         0.496955       0.273538
                                                         0.162492       0.006620
                          1       5    4dyz             10.389228       3.234392
                                                         3.849621       1.162195
                                                         1.388401       2.344229
                                                         0.496955       0.473781
                                                         0.162492       0.011466
                          1       5    4dz2             10.389228       1.867377
                                                         3.849621       0.670994
                                                         1.388401       1.353441
                                                         0.496955       0.273538
                                                         0.162492       0.006620

     GTH Potential information for                                       GTH-PBE

       Description:                       Goedecker-Teter-Hutter pseudopotential
                                           Goedecker et al., PRB 54, 1703 (1996)
                                          Hartwigsen et al., PRB 58, 3641 (1998)
                                                      Krack, TCA 114, 145 (2005)

       Gaussian exponent of the core charge distribution:               8.360253
       Electronic configuration (s p d ...):                               2   4

       Parameters of the local part of the GTH pseudopotential:

                          rloc        C1          C2          C3          C4
                        0.244554  -16.667215    2.487311

       Parameters of the non-local part of the GTH pseudopotential:

                   l      r(l)      h(i,j,l)

                   0    0.220956   18.337458
                   1    0.211332

  2. Atomic kind: H                                     Number of atoms:       2

     Orbital Basis Set                                        DZVP-MOLOPT-SR-GTH

       Number of orbital shell sets:                                           1
       Number of orbital shells:                                               3
       Number of primitive Cartesian functions:                                5
       Number of Cartesian basis functions:                                    5
       Number of spherical basis functions:                                    5
       Norm type:                                                              2

       Normalised Cartesian orbitals:

                        Set   Shell   Orbital            Exponent    Coefficient

                          1       1    2s               10.068468      -0.133023
                                                         2.680223      -0.177618
                                                         0.791502      -0.258419
                                                         0.239116      -0.107525
                                                         0.082193      -0.014019

                          1       2    3s               10.068468       0.344673
                                                         2.680223       1.819821
                                                         0.791502      -0.999069
                                                         0.239116       0.017430
                                                         0.082193       0.082660

                          1       3    3px              10.068468       0.155326
                                                         2.680223       0.367157
                                                         0.791502       0.311480
                                                         0.239116       0.080105
                                                         0.082193       0.033440
                          1       3    3py              10.068468       0.155326
                                                         2.680223       0.367157
                                                         0.791502       0.311480
                                                         0.239116       0.080105
                                                         0.082193       0.033440
                          1       3    3pz              10.068468       0.155326
                                                         2.680223       0.367157
                                                         0.791502       0.311480
                                                         0.239116       0.080105
                                                         0.082193       0.033440

     GTH Potential information for                                       GTH-PBE

       Description:                       Goedecker-Teter-Hutter pseudopotential
                                           Goedecker et al., PRB 54, 1703 (1996)
                                          Hartwigsen et al., PRB 58, 3641 (1998)
                                                      Krack, TCA 114, 145 (2005)

       Gaussian exponent of the core charge distribution:              12.500000
       Electronic configuration (s p d ...):                                   1

       Parameters of the local part of the GTH pseudopotential:

                          rloc        C1          C2          C3          C4
                        0.200000   -4.178900    0.724463

  3. Atomic kind: Ne                                    Number of atoms:       1

     Orbital Basis Set                                        DZVP-MOLOPT-SR-GTH

       Number of orbital shell sets:                                           1
       Number of orbital shells:                                               5
       Number of primitive Cartesian functions:                                6
       Number of Cartesian basis functions:                                   14
       Number of spherical basis functions:                                   13
       Norm type:                                                              2

       Normalised Cartesian orbitals:

                        Set   Shell   Orbital            Exponent    Coefficient

                          1       1    2s               19.144669       0.447140
                                                         7.817582       0.449854
                                                         3.076395      -0.287880
                                                         1.225783      -0.438095
                                                         0.469438      -0.167823
                                                         0.165401      -0.010250

                          1       2    3s               19.144669       0.052394
                                                         7.817582       0.292262
                                                         3.076395      -0.360517
                                                         1.225783       0.107382
                                                         0.469438      -0.511166
                                                         0.165401       0.317732

                          1       3    3px              19.144669       2.518288
                                                         7.817582       2.628880
                                                         3.076395       1.656685
                                                         1.225783       0.676630
                                                         0.469438       0.173094
                                                         0.165401       0.019398
                          1       3    3py              19.144669       2.518288
                                                         7.817582       2.628880
                                                         3.076395       1.656685
                                                         1.225783       0.676630
                                                         0.469438       0.173094
                                                         0.165401       0.019398
                          1       3    3pz              19.144669       2.518288
                                                         7.817582       2.628880
                                                         3.076395       1.656685
                                                         1.225783       0.676630
                                                         0.469438       0.173094
                                                         0.165401       0.019398

                          1       4    4px              19.144669      -1.114943
                                                         7.817582      -0.949009
                                                         3.076395      -0.990975
                                                         1.225783       0.013727
                                                         0.469438      -0.313174
                                                         0.165401       0.194173
                          1       4    4py              19.144669      -1.114943
                                                         7.817582      -0.949009
                                                         3.076395      -0.990975
                                                         1.225783       0.013727
                                                         0.469438      -0.313174
                                                         0.165401       0.194173
                          1       4    4pz              19.144669      -1.114943
                                                         7.817582      -0.949009
                                                         3.076395      -0.990975
                                                         1.225783       0.013727
                                                         0.469438      -0.313174
                                                         0.165401       0.194173

                          1       5    4dx2             19.144669      -4.453246
                                                         7.817582      -0.768682
                                                         3.076395      -1.763441
                                                         1.225783      -0.063646
                                                         0.469438      -0.406879
                                                         0.165401       0.084970
                          1       5    4dxy             19.144669      -7.713249
                                                         7.817582      -1.331396
                                                         3.076395      -3.054369
                                                         1.225783      -0.110238
                                                         0.469438      -0.704735
                                                         0.165401       0.147173
                          1       5    4dxz             19.144669      -7.713249
                                                         7.817582      -1.331396
                                                         3.076395      -3.054369
                                                         1.225783      -0.110238
                                                         0.469438      -0.704735
                                                         0.165401       0.147173
                          1       5    4dy2             19.144669      -4.453246
                                                         7.817582      -0.768682
                                                         3.076395      -1.763441
                                                         1.225783      -0.063646
                                                         0.469438      -0.406879
                                                         0.165401       0.084970
                          1       5    4dyz             19.144669      -7.713249
                                                         7.817582      -1.331396
                                                         3.076395      -3.054369
                                                         1.225783      -0.110238
                                                         0.469438      -0.704735
                                                         0.165401       0.147173
                          1       5    4dz2             19.144669      -4.453246
                                                         7.817582      -0.768682
                                                         3.076395      -1.763441
                                                         1.225783      -0.063646
                                                         0.469438      -0.406879
                                                         0.165401       0.084970

     GTH Potential information for                                       GTH-PBE

       Description:                       Goedecker-Teter-Hutter pseudopotential
                                           Goedecker et al., PRB 54, 1703 (1996)
                                          Hartwigsen et al., PRB 58, 3641 (1998)
                                                      Krack, TCA 114, 145 (2005)

       Gaussian exponent of the core charge distribution:              13.850416
       Electronic configuration (s p d ...):                               2   6

       Parameters of the local part of the GTH pseudopotential:

                          rloc        C1          C2          C3          C4
                        0.190000  -27.120160    4.360450

       Parameters of the non-local part of the GTH pseudopotential:

                   l      r(l)      h(i,j,l)

                   0    0.176059   28.177371    0.833656
                                    0.833656   -1.076245
                   1    0.195475   -0.236294


 MOLECULE KIND INFORMATION


 All atoms are their own molecule, skipping detailed information


 TOTAL NUMBERS AND MAXIMUM NUMBERS

  Total number of            - Atomic kinds:                                   3
                             - Atoms:                                          4
                             - Shell sets:                                     4
                             - Shells:                                        16
                             - Primitive Cartesian functions:                 21
                             - Cartesian basis functions:                     38
                             - Spherical basis functions:                     36

  Maximum angular momentum of- Orbital basis functions:                        2
                             - Local part of the GTH pseudopotential:          2
                             - Non-local part of the GTH pseudopotential:      2


 MODULE QUICKSTEP:  ATOMIC COORDINATES IN angstrom

  Atom  Kind  Element       X           Y           Z          Z(eff)       Mass

       1     1 O    8    3.910000    5.490000    5.000000      6.00      15.9994
       2     2 H    1    4.880000    5.490000    5.000000      1.00       1.0079
       3     2 H    1    3.590000    5.930000    5.802000      1.00       1.0079
       4     3 Ne  10    3.354920    3.070500    6.331720      8.00      20.1797




 SCF PARAMETERS         Density guess:                                    ATOMIC
                        --------------------------------------------------------
                        max_scf:                                              20
                        max_scf_history:                                       0
                        max_diis:                                              4
                        --------------------------------------------------------
                        eps_scf:                                        1.00E-06
                        eps_scf_history:                                0.00E+00
                        eps_diis:                                       1.00E-01
                        eps_eigval:                                     1.00E-05
                        --------------------------------------------------------
                        level_shift [a.u.]:                                 0.00
                        --------------------------------------------------------
                        Outer loop SCF in use 
                        No variables optimised in outer loop
                        eps_scf                                         1.00E-07
                        max_scf                                               20
                        No outer loop optimization
                        step_size                                       5.00E-01

 PW_GRID| Information for grid number                                          1
 PW_GRID| Grid distributed over                                    25 processors
 PW_GRID| Real space group dimensions                                    25    1
 PW_GRID| the grid is blocked:                                                NO
 PW_GRID| Cutoff [a.u.]                                                    150.0
 PW_GRID| spherical cutoff:                                                   NO
 PW_GRID|   Bounds   1            -54      53                Points:         108
 PW_GRID|   Bounds   2            -54      53                Points:         108
 PW_GRID|   Bounds   3            -54      53                Points:         108
 PW_GRID| Volume element (a.u.^3)  0.5357E-02     Volume (a.u.^3)      6748.3346
 PW_GRID| Grid span                                                    FULLSPACE
 PW_GRID|   Distribution                         Average         Max         Min
 PW_GRID|   G-Vectors                            50388.5       50436       50328
 PW_GRID|   G-Rays                                 466.6         467         466
 PW_GRID|   Real Space Points                    50388.5       58320       46656

 PW_GRID| Information for grid number                                          2
 PW_GRID| Grid distributed over                                    25 processors
 PW_GRID| Real space group dimensions                                    25    1
 PW_GRID| the grid is blocked:                                                NO
 PW_GRID| Cutoff [a.u.]                                                     50.0
 PW_GRID| spherical cutoff:                                                   NO
 PW_GRID|   Bounds   1            -32      31                Points:          64
 PW_GRID|   Bounds   2            -32      31                Points:          64
 PW_GRID|   Bounds   3            -32      31                Points:          64
 PW_GRID| Volume element (a.u.^3)  0.2574E-01     Volume (a.u.^3)      6748.3346
 PW_GRID| Grid span                                                    FULLSPACE
 PW_GRID|   Distribution                         Average         Max         Min
 PW_GRID|   G-Vectors                            10485.8       10560       10432
 PW_GRID|   G-Rays                                 163.8         165         163
 PW_GRID|   Real Space Points                    10485.8       12288        8192

 PW_GRID| Information for grid number                                          3
 PW_GRID| Grid distributed over                                    25 processors
 PW_GRID| Real space group dimensions                                    25    1
 PW_GRID| the grid is blocked:                                                NO
 PW_GRID| Cutoff [a.u.]                                                     16.7
 PW_GRID| spherical cutoff:                                                   NO
 PW_GRID|   Bounds   1            -18      17                Points:          36
 PW_GRID|   Bounds   2            -18      17                Points:          36
 PW_GRID|   Bounds   3            -18      17                Points:          36
 PW_GRID| Volume element (a.u.^3)  0.1446         Volume (a.u.^3)      6748.3346
 PW_GRID| Grid span                                                    FULLSPACE
 PW_GRID|   Distribution                         Average         Max         Min
 PW_GRID|   G-Vectors                             1866.2        1908        1836
 PW_GRID|   G-Rays                                  51.8          53          51
 PW_GRID|   Real Space Points                     1866.2        2592        1296

 PW_GRID| Information for grid number                                          4
 PW_GRID| Grid distributed over                                    25 processors
 PW_GRID| Real space group dimensions                                     5    5
 PW_GRID| the grid is blocked:                                                NO
 PW_GRID| Cutoff [a.u.]                                                      5.6
 PW_GRID| spherical cutoff:                                                   NO
 PW_GRID|   Bounds   1            -12      11                Points:          24
 PW_GRID|   Bounds   2            -12      11                Points:          24
 PW_GRID|   Bounds   3            -12      11                Points:          24
 PW_GRID| Volume element (a.u.^3)  0.4882         Volume (a.u.^3)      6748.3346
 PW_GRID| Grid span                                                    FULLSPACE
 PW_GRID|   Distribution                         Average         Max         Min
 PW_GRID|   G-Vectors                              553.0         600         504
 PW_GRID|   G-Rays                                  23.0          25          21
 PW_GRID|   Real Space Points                      553.0         600         384

 POISSON| Solver                                                        PERIODIC
 POISSON| Periodicity                                                        XYZ

 RS_GRID| Information for grid number                                          1
 RS_GRID|   Bounds   1            -54      53                Points:         108
 RS_GRID|   Bounds   2            -54      53                Points:         108
 RS_GRID|   Bounds   3            -54      53                Points:         108
 RS_GRID| Real space distribution over                                  5 groups
 RS_GRID| Real space distribution along direction                              2
 RS_GRID| Border size                                                         24
 RS_GRID| Real space distribution over                                  5 groups
 RS_GRID| Real space distribution along direction                              3
 RS_GRID| Border size                                                         24
 RS_GRID|   Distribution                         Average         Max         Min
 RS_GRID|   Planes                                  69.6          70          69
 RS_GRID|   Distribution                         Average         Max         Min
 RS_GRID|   Planes                                  69.6          70          69

 RS_GRID| Information for grid number                                          2
 RS_GRID|   Bounds   1            -32      31                Points:          64
 RS_GRID|   Bounds   2            -32      31                Points:          64
 RS_GRID|   Bounds   3            -32      31                Points:          64
 RS_GRID| Real space fully replicated
 RS_GRID| Group size                                                           1

 RS_GRID| Information for grid number                                          3
 RS_GRID|   Bounds   1            -18      17                Points:          36
 RS_GRID|   Bounds   2            -18      17                Points:          36
 RS_GRID|   Bounds   3            -18      17                Points:          36
 RS_GRID| Real space fully replicated
 RS_GRID| Group size                                                           1

 RS_GRID| Information for grid number                                          4
 RS_GRID|   Bounds   1            -12      11                Points:          24
 RS_GRID|   Bounds   2            -12      11                Points:          24
 RS_GRID|   Bounds   3            -12      11                Points:          24
 RS_GRID| Real space fully replicated
 RS_GRID| Group size                                                           1

 DISTRIBUTION OF THE PARTICLES (ROWS)
              Process row      Number of particles         Number of matrix rows
                        0                        1                            -1
                        1                        1                            -1
                        2                        0                            -1
                        3                        1                            -1
                        4                        1                            -1
                      Sum                        4                            -1

 DISTRIBUTION OF THE PARTICLES (COLUMNS)
              Process col      Number of particles      Number of matrix columns
                        0                        1                            -1
                        1                        1                            -1
                        2                        0                            -1
                        3                        1                            -1
                        4                        1                            -1
                      Sum                        4                            -1

 *******************************************************************************
 ***                     STARTING GEOMETRY OPTIMIZATION                      ***
 ***                                   BFGS                                  ***
 *******************************************************************************

 DISTRIBUTION OF THE NEIGHBOR LISTS
              Total number of particle pairs:                                 48
              Total number of matrix elements:                              2800
              Average number of particle pairs:                                2
              Maximum number of particle pairs:                                7
              Average number of matrix element:                              112
              Maximum number of matrix elements:                             507


 DISTRIBUTION OF THE OVERLAP MATRIX
              Number  of non-zero blocks:                                     10
              Percentage non-zero blocks:                                 100.00
              Average number of blocks per CPU:                                1
              Maximum number of blocks per CPU:                                1
              Average number of matrix elements per CPU:                      38
              Maximum number of matrix elements per CPU:                     179

 Number of electrons:                                                         16
 Number of occupied orbitals:                                                  8
 Number of molecular orbitals:                                                 8

 Number of orbital functions:                                                 36
 Number of independent orbital functions:                                     36

 Extrapolation method: initial_guess

 Atomic guess: The first density matrix is obtained in terms of atomic orbitals
               and electronic configurations assigned to each atomic kind

 Guess for atomic kind: O

 Electronic structure
    Total number of core electrons                                          2.00
    Total number of valence electrons                                       6.00
    Total number of electrons                                               8.00
    Multiplicity                                                   not specified
    S   [  2.00] 2.00
    P      4.00
 

 *******************************************************************************
                  Iteration          Convergence                     Energy [au]
 *******************************************************************************
                          1         1.67054                     -14.836051221656
                          2         2.12470                     -14.897900780399
                          3        0.100150                     -15.654295189160
                          4        0.189307E-01                 -15.655828842238
                          5        0.464435E-02                 -15.655882433232
                          6        0.259395E-02                 -15.655884790195
                          7        0.516014E-04                 -15.655885857622
                          8        0.157374E-05                 -15.655885858066
                          9        0.783512E-06                 -15.655885858066

 Energy components [Hartree]           Total Energy ::          -15.655885858066
                                        Band Energy ::           -2.983129541149
                                     Kinetic Energy ::           11.754767937471
                                   Potential Energy ::          -27.410653795537
                                      Virial (-V/T) ::            2.331875366774
                                        Core Energy ::          -26.153524299614
                                          XC Energy ::           -3.157392735430
                                     Coulomb Energy ::           13.655031176977
                       Total Pseudopotential Energy ::          -37.943031004163
                       Local Pseudopotential Energy ::          -39.220423834999
                    Nonlocal Pseudopotential Energy ::            1.277392830837
                                        Confinement ::            0.347387670777

 Orbital energies  State     L     Occupation   Energy[a.u.]          Energy[eV]

                       1     0          2.000      -0.861523          -23.443221
 
                       1     1          4.000      -0.315021           -8.572160
 

 Total Electron Density at R=0:                                         0.000093

 Guess for atomic kind: H

 Electronic structure
    Total number of core electrons                                          0.00
    Total number of valence electrons                                       1.00
    Total number of electrons                                               1.00
    Multiplicity                                                   not specified
    S      1.00
 

 *******************************************************************************
                  Iteration          Convergence                     Energy [au]
 *******************************************************************************
                          1        0.250972E-02                  -0.375256815885
                          2        0.570752E-04                  -0.375258666164
                          3        0.832405E-09                  -0.375258667122

 Energy components [Hartree]           Total Energy ::           -0.375258667122
                                        Band Energy ::           -0.076317618391
                                     Kinetic Energy ::            0.771356566341
                                   Potential Energy ::           -1.146615233463
                                      Virial (-V/T) ::            1.486491829455
                                        Core Energy ::           -0.456090715790
                                          XC Energy ::           -0.314218627334
                                     Coulomb Energy ::            0.395050676003
                       Total Pseudopotential Energy ::           -1.238482237174
                       Local Pseudopotential Energy ::           -1.238482237174
                    Nonlocal Pseudopotential Energy ::            0.000000000000
                                        Confinement ::            0.110349550431

 Orbital energies  State     L     Occupation   Energy[a.u.]          Energy[eV]

                       1     0          1.000      -0.076318           -2.076708
 

 Total Electron Density at R=0:                                         0.425022

 Guess for atomic kind: Ne

 Electronic structure
    Total number of core electrons                                          2.00
    Total number of valence electrons                                       8.00
    Total number of electrons                                              10.00
    Multiplicity                                                   not specified
    S   [  2.00] 2.00
    P      6.00
 

 *******************************************************************************
                  Iteration          Convergence                     Energy [au]
 *******************************************************************************
                          1         1.32162                     -34.249089062379
                          2         2.11825                     -34.341615511195
                          3        0.585496E-01                 -34.733203701408
                          4        0.133279E-02                 -34.733637247267
                          5        0.653294E-03                 -34.733637427268
                          6        0.431814E-03                 -34.733637459304
                          7        0.240458E-04                 -34.733637484071
                          8        0.649390E-08                 -34.733637484147

 Energy components [Hartree]           Total Energy ::          -34.733637484147
                                        Band Energy ::           -5.511062612820
                                     Kinetic Energy ::           28.263988663011
                                   Potential Energy ::          -62.997626147158
                                      Virial (-V/T) ::            2.228900771872
                                        Core Energy ::          -59.975949989604
                                          XC Energy ::           -5.805410419238
                                     Coulomb Energy ::           31.047722924695
                       Total Pseudopotential Energy ::          -88.268862611305
                       Local Pseudopotential Energy ::          -90.099213055494
                    Nonlocal Pseudopotential Energy ::            1.830350444189
                                        Confinement ::            0.289239586903

 Orbital energies  State     L     Occupation   Energy[a.u.]          Energy[eV]

                       1     0          2.000      -1.323084          -36.002957
 
                       1     1          6.000      -0.477482          -12.992954
 

 Total Electron Density at R=0:                                         0.000086
 Re-scaling the density matrix to get the right number of electrons
                  # Electrons              Trace(P)               Scaling factor
                           16                16.000                        1.000


 SCF WAVEFUNCTION OPTIMIZATION

  ----------------------------------- OT ---------------------------------------
  Minimizer      : DIIS                : direct inversion
                                         in the iterative subspace
                                         using   7 DIIS vectors
                                         safer DIIS on
  Preconditioner : FULL_ALL            : diagonalization, state selective
  Precond_solver : DEFAULT
  stepsize       :    0.15000000                  energy_gap     :    0.08000000
  eps_taylor     :   0.10000E-15                  max_taylor     :             4
  ----------------------------------- OT ---------------------------------------

  Step     Update method      Time    Convergence         Total energy    Change
  ------------------------------------------------------------------------------
     1 OT DIIS     0.15E+00    0.2     0.38701372       -50.6119667837 -5.06E+01
     2 OT DIIS     0.15E+00    0.1     0.20828679       -50.2443738804  3.68E-01
     3 OT DIIS     0.15E+00    0.1     0.22526400       -51.5280951615 -1.28E+00
     4 OT DIIS     0.15E+00    0.1     0.21116925       -51.6522330368 -1.24E-01
     5 OT DIIS     0.15E+00    0.1     0.16353751       -51.9364962747 -2.84E-01
     6 OT DIIS     0.15E+00    0.1     0.14920310       -52.0228387588 -8.63E-02
     7 OT DIIS     0.15E+00    0.1     0.01889734       -52.1350626514 -1.12E-01
     8 OT DIIS     0.15E+00    0.1     0.02158796       -52.1392675956 -4.20E-03
     9 OT DIIS     0.15E+00    0.1     0.01439430       -52.1425401014 -3.27E-03
    10 OT DIIS     0.15E+00    0.1     0.00347348       -52.1437557133 -1.22E-03
    11 OT DIIS     0.15E+00    0.1     0.00202916       -52.1439047757 -1.49E-04
    12 OT DIIS     0.15E+00    0.1     0.00101953       -52.1439813107 -7.65E-05
    13 OT DIIS     0.15E+00    0.2     0.00050047       -52.1439931132 -1.18E-05
    14 OT DIIS     0.15E+00    0.2     0.00048754       -52.1439944293 -1.32E-06
    15 OT DIIS     0.15E+00    0.1     0.00011420       -52.1439965575 -2.13E-06
    16 OT DIIS     0.15E+00    0.1     0.00007764       -52.1439968598 -3.02E-07
    17 OT DIIS     0.15E+00    0.1     0.00004613       -52.1439969638 -1.04E-07
    18 OT DIIS     0.15E+00    0.1     0.00004384       -52.1439969826 -1.89E-08
    19 OT DIIS     0.15E+00    0.1     0.00001611       -52.1439969994 -1.68E-08
    20 OT DIIS     0.15E+00    0.1     0.00000924       -52.1439970031 -3.62E-09

  Leaving inner SCF loop after reaching    20 steps.


  Electronic density on regular grids:        -16.0000026516       -0.0000026516
  Core density on regular grids:               15.9999999996       -0.0000000004
  Total charge density on r-space grids:       -0.0000026521
  Total charge density g-space grids:          -0.0000026521

  Overlap energy of the core charge distribution:               0.00000004355362
  Self energy of the core charge distribution:               -139.36855854162295
  Core Hamiltonian energy:                                     39.23563304309555
  Hartree energy:                                              58.18716511758608
  Exchange-correlation energy:                                -10.19760341674746
  Dispersion energy:                                           -0.00063324891902

  Total energy:                                               -52.14399700305415

  outer SCF iter =    1 RMS gradient =   0.92E-05 energy =        -52.1439970031

  ----------------------------------- OT ---------------------------------------
  Minimizer      : DIIS                : direct inversion
                                         in the iterative subspace
                                         using   7 DIIS vectors
                                         safer DIIS on
  Preconditioner : FULL_ALL            : diagonalization, state selective
  Precond_solver : DEFAULT
  stepsize       :    0.15000000                  energy_gap     :    0.08000000
  eps_taylor     :   0.10000E-15                  max_taylor     :             4
  ----------------------------------- OT ---------------------------------------

  Step     Update method      Time    Convergence         Total energy    Change
  ------------------------------------------------------------------------------
     1 OT DIIS     0.15E+00    0.3     0.00000418       -52.1439970045 -1.47E-09
     2 OT DIIS     0.15E+00    0.1     0.00000164       -52.1439970050 -5.21E-10
     3 OT DIIS     0.15E+00    0.1     0.00000033       -52.1439970051 -9.43E-11

  *** SCF run converged in     3 steps ***


  Electronic density on regular grids:        -16.0000026517       -0.0000026517
  Core density on regular grids:               15.9999999996       -0.0000000004
  Total charge density on r-space grids:       -0.0000026521
  Total charge density g-space grids:          -0.0000026521

  Overlap energy of the core charge distribution:               0.00000004355362
  Self energy of the core charge distribution:               -139.36855854162295
  Core Hamiltonian energy:                                     39.23565638512042
  Hartree energy:                                              58.18714557169833
  Exchange-correlation energy:                                -10.19760721496524
  Dispersion energy:                                           -0.00063324891902

  Total energy:                                               -52.14399700513482

  outer SCF iter =    2 RMS gradient =   0.33E-06 energy =        -52.1439970051

  ----------------------------------- OT ---------------------------------------
  Minimizer      : DIIS                : direct inversion
                                         in the iterative subspace
                                         using   7 DIIS vectors
                                         safer DIIS on
  Preconditioner : FULL_ALL            : diagonalization, state selective
  Precond_solver : DEFAULT
  stepsize       :    0.15000000                  energy_gap     :    0.08000000
  eps_taylor     :   0.10000E-15                  max_taylor     :             4
  ----------------------------------- OT ---------------------------------------

  Step     Update method      Time    Convergence         Total energy    Change
  ------------------------------------------------------------------------------
     1 OT DIIS     0.15E+00    0.3     0.00000008       -52.1439970051 -1.41E-12

  *** SCF run converged in     1 steps ***


  Electronic density on regular grids:        -16.0000026517       -0.0000026517
  Core density on regular grids:               15.9999999996       -0.0000000004
  Total charge density on r-space grids:       -0.0000026521
  Total charge density g-space grids:          -0.0000026521

  Overlap energy of the core charge distribution:               0.00000004355362
  Self energy of the core charge distribution:               -139.36855854162295
  Core Hamiltonian energy:                                     39.23566314459971
  Hartree energy:                                              58.18714002927470
  Exchange-correlation energy:                                -10.19760843202231
  Dispersion energy:                                           -0.00063324891902

  Total energy:                                               -52.14399700513623

  outer SCF iter =    3 RMS gradient =   0.77E-07 energy =        -52.1439970051
  outer SCF loop converged in   3 iterations or   24 steps


 !-----------------------------------------------------------------------------!
                     Mulliken Population Analysis

 #  Atom  Element  Kind  Atomic population                           Net charge
       1     O        1          6.257056                             -0.257056
       2     H        2          0.872312                              0.127688
       3     H        2          0.871283                              0.128717
       4     Ne       3          7.999349                              0.000651
 # Total charge                             16.000000                  0.000000

 !-----------------------------------------------------------------------------!

 !-----------------------------------------------------------------------------!
                           Hirshfeld Charges

  #Atom  Element  Kind  Ref Charge     Population                    Net charge
      1       O      1       6.000          7.093                        -1.093
      2       H      2       1.000          0.436                         0.564
      3       H      2       1.000          0.436                         0.564
      4       Ne     3       8.000          8.025                        -0.025

  Total Charge                                                            0.010
 !-----------------------------------------------------------------------------!
  
  Eigenvalues of the occupied subspace spin            1
 ---------------------------------------------
      -1.31877703     -0.91816913     -0.48271421     -0.47218870
      -0.47195192     -0.47099176     -0.32396652     -0.25468626
 Fermi Energy [eV] :   -6.930366
  
  Lowest Eigenvalues of the unoccupied subspace spin            1
 -----------------------------------------------------
  Reached convergence in           79  iterations 
       0.12433321
  
 HOMO - LUMO gap [eV] :   10.313644

 ENERGY| Total FORCE_EVAL ( QS ) energy (a.u.):              -52.143997005136328


 --------  Informations at step =     0 ------------
  Optimization Method        =                 BFGS
  Total Energy               =       -52.1439970051
  Used time                  =                4.937
 ---------------------------------------------------

 --------------------------
 OPTIMIZATION STEP:      1
 --------------------------

 DISTRIBUTION OF THE NEIGHBOR LISTS
              Total number of particle pairs:                                 48
              Total number of matrix elements:                              2800
              Average number of particle pairs:                                2
              Maximum number of particle pairs:                                7
              Average number of matrix element:                              112
              Maximum number of matrix elements:                             507


 DISTRIBUTION OF THE OVERLAP MATRIX
              Number  of non-zero blocks:                                     10
              Percentage non-zero blocks:                                 100.00
              Average number of blocks per CPU:                                1
              Maximum number of blocks per CPU:                                1
              Average number of matrix elements per CPU:                      38
              Maximum number of matrix elements per CPU:                     179

 Number of electrons:                                                         16
 Number of occupied orbitals:                                                  8
 Number of molecular orbitals:                                                 8

 Number of orbital functions:                                                 36
 Number of independent orbital functions:                                     36

 Parameters for the always stable predictor-corrector (ASPC) method:

  ASPC order: 0

  B(1) =   1.000000

 Extrapolation method: ASPC


 SCF WAVEFUNCTION OPTIMIZATION

  ----------------------------------- OT ---------------------------------------
  Minimizer      : DIIS                : direct inversion
                                         in the iterative subspace
                                         using   7 DIIS vectors
                                         safer DIIS on
  Preconditioner : FULL_ALL            : diagonalization, state selective
  Precond_solver : DEFAULT
  stepsize       :    0.15000000                  energy_gap     :    0.08000000
  eps_taylor     :   0.10000E-15                  max_taylor     :             4
  ----------------------------------- OT ---------------------------------------

  Step     Update method      Time    Convergence         Total energy    Change
  ------------------------------------------------------------------------------
     1 OT DIIS     0.15E+00    0.1     0.00544028       -52.1430032494 -5.21E+01
     2 OT DIIS     0.15E+00    0.1     0.00221122       -52.1438624090 -8.59E-04
     3 OT DIIS     0.15E+00    0.2     0.00113890       -52.1440049467 -1.43E-04
     4 OT DIIS     0.15E+00    0.1     0.00006199       -52.1440237677 -1.88E-05
     5 OT DIIS     0.15E+00    0.1     0.00000944       -52.1440238517 -8.40E-08
     6 OT DIIS     0.15E+00    0.1     0.00000159       -52.1440238545 -2.83E-09
     7 OT DIIS     0.15E+00    0.1     0.00000013       -52.1440238546 -7.96E-11

  *** SCF run converged in     7 steps ***


  Electronic density on regular grids:        -16.0000108776       -0.0000108776
  Core density on regular grids:               15.9999999991       -0.0000000009
  Total charge density on r-space grids:       -0.0000108785
  Total charge density g-space grids:          -0.0000108785

  Overlap energy of the core charge distribution:               0.00000003992682
  Self energy of the core charge distribution:               -139.36855854162295
  Core Hamiltonian energy:                                     39.23123850433712
  Hartree energy:                                              58.19174862734727
  Exchange-correlation energy:                                -10.19779327100729
  Dispersion energy:                                           -0.00065921357207

  Total energy:                                               -52.14402385459112

  outer SCF iter =    1 RMS gradient =   0.13E-06 energy =        -52.1440238546

  ----------------------------------- OT ---------------------------------------
  Minimizer      : DIIS                : direct inversion
                                         in the iterative subspace
                                         using   7 DIIS vectors
                                         safer DIIS on
  Preconditioner : FULL_ALL            : diagonalization, state selective
  Precond_solver : DEFAULT
  stepsize       :    0.15000000                  energy_gap     :    0.08000000
  eps_taylor     :   0.10000E-15                  max_taylor     :             4
  ----------------------------------- OT ---------------------------------------

  Step     Update method      Time    Convergence         Total energy    Change
  ------------------------------------------------------------------------------
     1 OT DIIS     0.15E+00    0.3     0.00000002       -52.1440238546 -5.54E-13

  *** SCF run converged in     1 steps ***


  Electronic density on regular grids:        -16.0000108776       -0.0000108776
  Core density on regular grids:               15.9999999991       -0.0000000009
  Total charge density on r-space grids:       -0.0000108785
  Total charge density g-space grids:          -0.0000108785

  Overlap energy of the core charge distribution:               0.00000003992682
  Self energy of the core charge distribution:               -139.36855854162295
  Core Hamiltonian energy:                                     39.23123923108422
  Hartree energy:                                              58.19174803828611
  Exchange-correlation energy:                                -10.19779340869379
  Dispersion energy:                                           -0.00065921357207

  Total energy:                                               -52.14402385459167

  outer SCF iter =    2 RMS gradient =   0.20E-07 energy =        -52.1440238546
  outer SCF loop converged in   2 iterations or    8 steps


 !-----------------------------------------------------------------------------!
                     Mulliken Population Analysis

 #  Atom  Element  Kind  Atomic population                           Net charge
       1     O        1          6.254182                             -0.254182
       2     H        2          0.874706                              0.125294
       3     H        2          0.873683                              0.126317
       4     Ne       3          7.997429                              0.002571
 # Total charge                             16.000000                 -0.000000

 !-----------------------------------------------------------------------------!

 !-----------------------------------------------------------------------------!
                           Hirshfeld Charges

  #Atom  Element  Kind  Ref Charge     Population                    Net charge
      1       O      1       6.000          7.078                        -1.078
      2       H      2       1.000          0.441                         0.559
      3       H      2       1.000          0.441                         0.559
      4       Ne     3       8.000          8.031                        -0.031

  Total Charge                                                            0.010
 !-----------------------------------------------------------------------------!
  
  Eigenvalues of the occupied subspace spin            1
 ---------------------------------------------
      -1.31920350     -0.92321598     -0.47391477     -0.47286358
      -0.47154523     -0.46459203     -0.33993226     -0.25549004
 Fermi Energy [eV] :   -6.952237
  
  Lowest Eigenvalues of the unoccupied subspace spin            1
 -----------------------------------------------------
  Reached convergence in           77  iterations 
       0.11995167
  
 HOMO - LUMO gap [eV] :   10.216288

 ENERGY| Total FORCE_EVAL ( QS ) energy (a.u.):              -52.144023854591637


 --------  Informations at step =     1 ------------
  Optimization Method        =                 BFGS
  Total Energy               =       -52.1440238546
  Real energy change         =        -0.0000268495
  Predicted change in energy =        -0.0160270971
  Scaling factor             =         0.0000000000
  Step size                  =         0.3923731744
  Trust radius               =         0.4724315332
  Decrease in energy         =                  YES
  Used time                  =                2.206

  Convergence check :
  Max. step size             =         0.3923731744
  Conv. limit for step size  =         0.0018897261
  Convergence in step size   =                   NO
  RMS step size              =         0.1633627457
  Conv. limit for RMS step   =         0.0009448631
  Convergence in RMS step    =                   NO
  Max. gradient              =         0.0380589997
  Conv. limit for gradients  =         0.0004500000
  Conv. for gradients        =                   NO
  RMS gradient               =         0.0159528777
  Conv. limit for RMS grad.  =         0.0003000000
  Conv. for gradients        =                   NO
 ---------------------------------------------------

 --------------------------
 OPTIMIZATION STEP:      2
 --------------------------

 DISTRIBUTION OF THE NEIGHBOR LISTS
              Total number of particle pairs:                                 48
              Total number of matrix elements:                              2800
              Average number of particle pairs:                                2
              Maximum number of particle pairs:                                7
              Average number of matrix element:                              112
              Maximum number of matrix elements:                             507


 DISTRIBUTION OF THE OVERLAP MATRIX
              Number  of non-zero blocks:                                     10
              Percentage non-zero blocks:                                 100.00
              Average number of blocks per CPU:                                1
              Maximum number of blocks per CPU:                                1
              Average number of matrix elements per CPU:                      38
              Maximum number of matrix elements per CPU:                     179

 Number of electrons:                                                         16
 Number of occupied orbitals:                                                  8
 Number of molecular orbitals:                                                 8

 Number of orbital functions:                                                 36
 Number of independent orbital functions:                                     36

 Parameters for the always stable predictor-corrector (ASPC) method:

  ASPC order: 0

  B(1) =   2.000000
  B(2) =  -1.000000

 Extrapolation method: ASPC


 SCF WAVEFUNCTION OPTIMIZATION

  ----------------------------------- OT ---------------------------------------
  Minimizer      : DIIS                : direct inversion
                                         in the iterative subspace
                                         using   7 DIIS vectors
                                         safer DIIS on
  Preconditioner : FULL_ALL            : diagonalization, state selective
  Precond_solver : DEFAULT
  stepsize       :    0.15000000                  energy_gap     :    0.08000000
  eps_taylor     :   0.10000E-15                  max_taylor     :             4
  ----------------------------------- OT ---------------------------------------

  Step     Update method      Time    Convergence         Total energy    Change
  ------------------------------------------------------------------------------
     1 OT DIIS     0.15E+00    0.1     0.00705958       -52.1410715270 -5.21E+01
     2 OT DIIS     0.15E+00    0.1     0.00291185       -52.1425122566 -1.44E-03
     3 OT DIIS     0.15E+00    0.1     0.00158544       -52.1427512832 -2.39E-04
     4 OT DIIS     0.15E+00    0.1     0.00005834       -52.1427884787 -3.72E-05
     5 OT DIIS     0.15E+00    0.1     0.00001098       -52.1427885782 -9.96E-08
     6 OT DIIS     0.15E+00    0.1     0.00000127       -52.1427885822 -3.93E-09
     7 OT DIIS     0.15E+00    0.1     0.00000018       -52.1427885822 -4.87E-11

  *** SCF run converged in     7 steps ***


  Electronic density on regular grids:        -15.9999657687        0.0000342313
  Core density on regular grids:               16.0000000014        0.0000000014
  Total charge density on r-space grids:        0.0000342327
  Total charge density g-space grids:           0.0000342327

  Overlap energy of the core charge distribution:               0.00000004295654
  Self energy of the core charge distribution:               -139.36855854162295
  Core Hamiltonian energy:                                     39.23383490676415
  Hartree energy:                                              58.19246081941448
  Exchange-correlation energy:                                -10.19987296483986
  Dispersion energy:                                           -0.00065284489068

  Total energy:                                               -52.14278858221832

  outer SCF iter =    1 RMS gradient =   0.18E-06 energy =        -52.1427885822

  ----------------------------------- OT ---------------------------------------
  Minimizer      : DIIS                : direct inversion
                                         in the iterative subspace
                                         using   7 DIIS vectors
                                         safer DIIS on
  Preconditioner : FULL_ALL            : diagonalization, state selective
  Precond_solver : DEFAULT
  stepsize       :    0.15000000                  energy_gap     :    0.08000000
  eps_taylor     :   0.10000E-15                  max_taylor     :             4
  ----------------------------------- OT ---------------------------------------

  Step     Update method      Time    Convergence         Total energy    Change
  ------------------------------------------------------------------------------
     1 OT DIIS     0.15E+00    0.3     0.00000003       -52.1427885822 -1.13E-12

  *** SCF run converged in     1 steps ***


  Electronic density on regular grids:        -15.9999657687        0.0000342313
  Core density on regular grids:               16.0000000014        0.0000000014
  Total charge density on r-space grids:        0.0000342327
  Total charge density g-space grids:           0.0000342327

  Overlap energy of the core charge distribution:               0.00000004295654
  Self energy of the core charge distribution:               -139.36855854162295
  Core Hamiltonian energy:                                     39.23383567473626
  Hartree energy:                                              58.19246013088528
  Exchange-correlation energy:                                -10.19987304428392
  Dispersion energy:                                           -0.00065284489068

  Total energy:                                               -52.14278858221945

  outer SCF iter =    2 RMS gradient =   0.30E-07 energy =        -52.1427885822
  outer SCF loop converged in   2 iterations or    8 steps


 !-----------------------------------------------------------------------------!
                     Mulliken Population Analysis

[...]


  Electronic density on regular grids:        -16.0000738319       -0.0000738319
  Core density on regular grids:               15.9999999960       -0.0000000040
  Total charge density on r-space grids:       -0.0000738360
  Total charge density g-space grids:          -0.0000738360

  Overlap energy of the core charge distribution:               0.00000004281029
  Self energy of the core charge distribution:               -139.36855854162295
  Core Hamiltonian energy:                                     39.23628268262556
  Hartree energy:                                              58.18112055947309
  Exchange-correlation energy:                                -10.19577276987603
  Dispersion energy:                                           -0.00059676509022

  Total energy:                                               -52.14752479168026

  outer SCF iter =    2 RMS gradient =   0.88E-08 energy =        -52.1475247917
  outer SCF loop converged in   2 iterations or    6 steps


 !-----------------------------------------------------------------------------!
                     Mulliken Population Analysis

 #  Atom  Element  Kind  Atomic population                           Net charge
       1     O        1          6.241141                             -0.241141
       2     H        2          0.878958                              0.121042
       3     H        2          0.879150                              0.120850
       4     Ne       3          8.000751                             -0.000751
 # Total charge                             16.000000                  0.000000

 !-----------------------------------------------------------------------------!

 !-----------------------------------------------------------------------------!
                           Hirshfeld Charges

  #Atom  Element  Kind  Ref Charge     Population                    Net charge
      1       O      1       6.000          7.095                        -1.095
      2       H      2       1.000          0.439                         0.561
      3       H      2       1.000          0.439                         0.561
      4       Ne     3       8.000          8.016                        -0.016

  Total Charge                                                            0.011
 !-----------------------------------------------------------------------------!
  
  Eigenvalues of the occupied subspace spin            1
 ---------------------------------------------
      -1.30869475     -0.92212209     -0.47346149     -0.46223181
      -0.46213708     -0.46171010     -0.33292547     -0.25700316
 Fermi Energy [eV] :   -6.993412
  
  Lowest Eigenvalues of the unoccupied subspace spin            1
 -----------------------------------------------------
  Reached convergence in           81  iterations 
       0.12692880
  
 HOMO - LUMO gap [eV] :   10.447320

 ENERGY| Total FORCE_EVAL ( QS ) energy (a.u.):              -52.147524791680262


 -------------------------------------------------------------------------------
 -                                                                             -
 -                                DBCSR STATISTICS                             -
 -                                                                             -
 -------------------------------------------------------------------------------
 COUNTER                                    TOTAL       BLAS       SMM       ACC
 flops     8 x     1 x     8                21120     100.0%      0.0%      0.0%
 flops     8 x     1 x     5                26400     100.0%      0.0%      0.0%
 flops     5 x     1 x     8                26400     100.0%      0.0%      0.0%
 flops     8 x     1 x    13                68640     100.0%      0.0%      0.0%
 flops    13 x     1 x     8                68640     100.0%      0.0%      0.0%
 flops     1 x     1 x     5               201200     100.0%      0.0%      0.0%
 flops     9 x     9 x     5               267300     100.0%      0.0%      0.0%
 flops     9 x     1 x     9               423306     100.0%      0.0%      0.0%
 flops     9 x     1 x     5               470340     100.0%      0.0%      0.0%
 flops     5 x     1 x     9               470340     100.0%      0.0%      0.0%
 flops     1 x     1 x    13               523120     100.0%      0.0%      0.0%
 flops     9 x     9 x    13               694980     100.0%      0.0%      0.0%
 flops     5 x     5 x     8               726000     100.0%      0.0%      0.0%
 flops     9 x     1 x    13              1222884     100.0%      0.0%      0.0%
 flops    13 x     1 x     9              1222884     100.0%      0.0%      0.0%
 flops     5 x    13 x     8              1258400     100.0%      0.0%      0.0%
 flops    13 x     5 x     8              1258400     100.0%      0.0%      0.0%
 flops     5 x     1 x     5              2111000     100.0%      0.0%      0.0%
 flops     8 x     8 x     5              2849280     100.0%      0.0%      0.0%
 flops     5 x     8 x     8              3255040     100.0%      0.0%      0.0%
 flops     8 x     8 x     8              3544064     100.0%      0.0%      0.0%
 flops    13 x    13 x     8              4907760     100.0%      0.0%      0.0%
 flops    13 x     1 x     5              5488600     100.0%      0.0%      0.0%
 flops     5 x     1 x    13              5488600     100.0%      0.0%      0.0%
 flops     5 x     8 x     5              5625600     100.0%      0.0%      0.0%
 flops     8 x     8 x    13              7408128     100.0%      0.0%      0.0%
 flops    13 x     8 x     8              8463104     100.0%      0.0%      0.0%
 flops    13 x     1 x    13             14270360     100.0%      0.0%      0.0%
 flops    13 x     8 x     5             14626560     100.0%      0.0%      0.0%
 flops     5 x     8 x    13             14626560     100.0%      0.0%      0.0%
 flops    13 x     8 x    13             38029056     100.0%      0.0%      0.0%
 flops inhomo. stacks                     1175130     100.0%      0.0%      0.0%
 flops total                       140.819196E+06     100.0%      0.0%      0.0%
 flops max/rank                     60.900930E+06     100.0%      0.0%      0.0%
 matmuls inhomo. stacks                     89837     100.0%      0.0%      0.0%
 matmuls total                             409462     100.0%      0.0%      0.0%
 number of processed stacks                409462     100.0%      0.0%      0.0%
 average stack size                                     1.0       0.0       0.0
 marketing flops                   145.876928E+06
 -------------------------------------------------------------------------------
 # multiplications                          85103
 max memory usage/rank             150.495232E+06
 # max total images/rank                        1
 # max 3D layers                                1
 # MPI messages exchanged                17020600
 MPI messages size (bytes):
  total size                       839.030656E+06
  min size                           0.000000E+00
  max size                           1.352000E+03
  average size                      49.295010E+00
 MPI breakdown and total messages size (bytes):
             size <=      128            15789372                 60316384
       128 < size <=     8192             1231228                778714272
      8192 < size <=    32768                   0                        0
     32768 < size <=   131072                   0                        0
    131072 < size <=  4194304                   0                        0
   4194304 < size <= 16777216                   0                        0
  16777216 < size                               0                        0
 -------------------------------------------------------------------------------
 
 MEMORY| Estimated peak process memory [MiB]                                 144

 -------------------------------------------------------------------------------
 ----                             MULTIGRID INFO                            ----
 -------------------------------------------------------------------------------
 count for grid        1:         367074          cutoff [a.u.]          150.00
 count for grid        2:          89064          cutoff [a.u.]           50.00
 count for grid        3:          55765          cutoff [a.u.]           16.67
 count for grid        4:           3502          cutoff [a.u.]            5.56
 total gridlevel count  :         515405

 -------------------------------------------------------------------------------
 -                                                                             -
 -                         MESSAGE PASSING PERFORMANCE                         -
 -                                                                             -
 -------------------------------------------------------------------------------

 ROUTINE             CALLS      AVE VOLUME [Bytes]
 MP_Group             6252
 MP_Bcast            22168                  27174.
 MP_Allreduce       229616                     11.
 MP_Sync              3052
 MP_Alltoall        329281                  60950.
 MP_SendRecv          5856                     40.
 MP_ISendRecv        78264                  41280.
 MP_Wait           4894724
 MP_comm_split        3048
 MP_ISend          1744560                   3355.
 MP_IRecv          1744560                   3335.
 MP_Recv               369                    436.
 MP_Memory         3294110
 -------------------------------------------------------------------------------


 -------------------------------------------------------------------------------
 -                                                                             -
 -                           R E F E R E N C E S                               -
 -                                                                             -
 -------------------------------------------------------------------------------
 
 CP2K version 5.1, the CP2K developers group (2017).
 CP2K is freely available from https://www.cp2k.org/ .

 Schuett, Ole; Messmer, Peter; Hutter, Juerg; VandeVondele, Joost. 
 Electronic Structure Calculations on Graphics Processing Units, John Wiley & Sons, Ltd, 173-190 (2016). 
 GPU-Accelerated Sparse Matrix-Matrix Multiplication for Linear Scaling Density Functional Theory.
 http://dx.doi.org/10.1002/9781118670712.ch8


 Borstnik, U; VandeVondele, J; Weber, V; Hutter, J. 
 PARALLEL COMPUTING, 40 (5-6), 47-58 (2014). 
 Sparse matrix multiplication: The distributed block-compressed sparse
 row library.
 http://dx.doi.org/10.1016/j.parco.2014.03.012


 Hutter, J; Iannuzzi, M; Schiffmann, F; VandeVondele, J. 
 WILEY INTERDISCIPLINARY REVIEWS-COMPUTATIONAL MOLECULAR SCIENCE, 4 (1), 15-25 (2014). 
 CP2K: atomistic simulations of condensed matter systems.
 http://dx.doi.org/10.1002/wcms.1159


 Grimme, S; Ehrlich, S; Goerigk, L. 
 JOURNAL OF COMPUTATIONAL CHEMISTRY, 32, 1456 (2011). 
 Effect of the damping function in dispersion corrected density functional theory.
 http://dx.doi.org/10.1002/jcc.21759


 Grimme, S; Antony, J; Ehrlich, S; Krieg, H. 
 JOURNAL OF CHEMICAL PHYSICS, 132 (15), 154104 (2010). 
 A consistent and accurate ab initio parametrization of density
 functional dispersion correction (DFT-D) for the 94 elements H-Pu.
 http://dx.doi.org/10.1063/1.3382344


 VandeVondele, J; Hutter, J. 
 JOURNAL OF CHEMICAL PHYSICS, 127 (11), 114105 (2007). 
 Gaussian basis sets for accurate calculations on molecular systems in
 gas and condensed phases.
 http://dx.doi.org/10.1063/1.2770708


 Krack, M. 
 THEORETICAL CHEMISTRY ACCOUNTS, 114 (1-3), 145-152 (2005). 
 Pseudopotentials for H to Kr optimized for gradient-corrected
 exchange-correlation functionals.
 http://dx.doi.org/10.1007/s00214-005-0655-y


 VandeVondele, J; Krack, M; Mohamed, F; Parrinello, M; Chassaing, T;
 Hutter, J. COMPUTER PHYSICS COMMUNICATIONS, 167 (2), 103-128 (2005). 
 QUICKSTEP: Fast and accurate density functional calculations using a
 mixed Gaussian and plane waves approach.
 http://dx.doi.org/10.1016/j.cpc.2004.12.014


 Frigo, M; Johnson, SG. 
 PROCEEDINGS OF THE IEEE, 93 (2), 216-231 (2005). 
 The design and implementation of FFTW3.
 http://dx.doi.org/10.1109/JPROC.2004.840301


 Kolafa, J. 
 JOURNAL OF COMPUTATIONAL CHEMISTRY, 25 (3), 335-342 (2004). 
 Time-reversible always stable predictor-corrector method for molecular dynamics of polarizable molecules.
 http://dx.doi.org/10.1002/jcc.10385


 VandeVondele, J; Hutter, J. 
 JOURNAL OF CHEMICAL PHYSICS, 118 (10), 4365-4369 (2003). 
 An efficient orbital transformation method for electronic structure
 calculations.
 http://dx.doi.org/10.1063/1.1543154


 Hartwigsen, C; Goedecker, S; Hutter, J. 
 PHYSICAL REVIEW B, 58 (7), 3641-3662 (1998). 
 Relativistic separable dual-space Gaussian pseudopotentials from H to Rn.
 http://dx.doi.org/10.1103/PhysRevB.58.3641


 Lippert, G; Hutter, J; Parrinello, M. 
 MOLECULAR PHYSICS, 92 (3), 477-487 (1997). 
 A hybrid Gaussian and plane wave density functional scheme.
 http://dx.doi.org/10.1080/002689797170220


 Perdew, JP; Burke, K; Ernzerhof, M. 
 PHYSICAL REVIEW LETTERS, 77 (18), 3865-3868 (1996). 
 Generalized gradient approximation made simple.
 http://dx.doi.org/10.1103/PhysRevLett.77.3865


 Goedecker, S; Teter, M; Hutter, J. 
 PHYSICAL REVIEW B, 54 (3), 1703-1710 (1996). 
 Separable dual-space Gaussian pseudopotentials.
 http://dx.doi.org/10.1103/PhysRevB.54.1703


 -------------------------------------------------------------------------------
 -                                                                             -
 -                                T I M I N G                                  -
 -                                                                             -
 -------------------------------------------------------------------------------
 SUBROUTINE                       CALLS  ASD         SELF TIME        TOTAL TIME
                                MAXIMUM       AVERAGE  MAXIMUM  AVERAGE  MAXIMUM
 CP2K                                 1  1.0    0.043    0.061  139.230  139.240
 cp_geo_opt                           1  2.0    0.005    0.009  138.718  138.723
 geoopt_bfgs                          1  3.0    0.013    0.030  138.713  138.714
 cp_eval_at                          62  4.0    0.008    0.013  138.210  138.215
 qs_forces                           61  5.0    0.008    0.010  136.324  136.324
 qs_energies                         62  6.0    0.010    0.014  130.862  130.864
 scf_env_do_scf                      62  7.0    0.004    0.012   72.102   72.104
 scf_env_do_scf_inner_loop          482  8.0    0.022    0.070   56.337   56.345
 scf_post_calculation_gpw            62  7.0    0.008    0.021   54.476   54.489
 rebuild_ks_matrix                  543  9.7    0.001    0.002   53.941   53.952
 qs_ks_build_kohn_sham_matrix       543 10.7    0.066    0.074   53.939   53.950
 make_lumo                           62  8.0    0.001    0.002   52.346   52.347
 ot_eigensolver                      62  9.0    0.057    0.077   52.158   52.159
 dbcsr_multiply_generic           85103 12.1    2.284    2.383   50.958   51.688
 qs_ks_update_qs_env                615  9.0    0.005    0.006   46.728   46.740
 pw_transfer                      10384 13.4    0.490    0.582   34.819   38.702
 fft_wrap_pw1pw2                   9298 14.5    0.061    0.071   34.071   38.010
 fft_wrap_pw1pw2_150               6037 15.5    2.271    2.584   32.578   36.357
 qs_vxc_create                      543 11.7    0.013    0.024   33.133   33.410
 xc_vxc_pw_create                   543 12.7    1.710    1.952   33.120   33.401
 fft3d_ps                          9298 16.5   16.580   20.053   28.170   32.177
 ot_mini                           5646 10.2    0.016    0.017   27.320   27.328
 qs_ot_get_derivative              3095 11.3    0.019    0.020   26.253   26.285
 rs_pw_transfer                    4595 13.2    0.035    0.042   21.286   21.749
 make_m2s                        170206 13.1    1.962    2.004   20.891   21.550
 xc_rho_set_and_dset_create         543 13.7    0.230    0.255   16.543   19.382
 multiply_cannon                  85103 13.1    6.344    6.516   18.463   18.766
 qs_ot_get_p                       5944 10.1    0.020    0.022   17.695   17.728
 qs_rho_update_rho                  544  9.1    0.004    0.004   17.327   17.339
 calculate_rho_elec                 544 10.1    0.444    1.747   17.323   17.335
 init_scf_loop                      133  8.0    0.003    0.006   15.718   15.725
 make_images                     170206 14.1    2.411    2.497   14.824   15.546
 density_rs2pw                      544 11.1    0.022    0.027   15.004   15.536
 sum_up_and_integrate               543 11.7    0.213    0.243   14.262   14.975
 integrate_v_rspace                 543 12.7    0.309    1.429   14.049   14.774
 mp_alltoall_z22v                  9298 18.5    9.043   14.198    9.043   14.198
 potential_pw2rs                    543 13.7    0.031    0.033   13.275   13.324
 qs_ot_get_derivative_taylor       1877 12.5    0.048    0.050   12.045   12.065
 yz_to_x                           3866 17.1    0.767    1.005    6.736   11.163
 xc_functional_eval                 543 14.7    0.005    0.011    6.746    9.769
 pbe_lda_eval                       543 15.7    6.742    9.766    6.742    9.766
 rs_pw_transfer_PW2RS_150           666 14.9    5.395    6.019    8.683    8.945
 qs_ot_p2m_diag                    2464 11.0    0.036    0.039    8.105    8.255
 rs_pw_transfer_RS2PW_150           668 12.8    4.995    5.652    7.687    8.197
 qs_ot_get_derivative_diag         1218 12.1    0.022    0.024    7.598    7.610
 qs_ks_update_qs_env_forces          61  6.0    0.000    0.000    7.248    7.249
 qs_ot_get_orbitals                5811 10.2    0.017    0.018    7.061    7.126
 qs_scf_new_mos                     482  9.0    0.002    0.002    6.913    6.927
 qs_scf_loop_do_ot                  482 10.0    0.003    0.006    6.911    6.924
 ot_scf_mini                        482 11.0    0.014    0.015    6.602    6.609
 make_images_sizes               170206 15.1    0.150    0.158    5.345    6.322
 mp_alltoall_i44                 170206 16.1    5.195    6.173    5.195    6.173
 mp_waitall_1                   4850702 15.7    5.032    6.062    5.032    6.062
 cp_dbcsr_syevd                    2730 12.0    0.116    0.122    5.624    5.756
 mp_waitany                       44022 14.8    4.266    5.511    4.266    5.511
 x_to_yz                           4345 17.8    1.591    1.783    4.651    5.344
 cp_fm_syevd                       3048 12.6    3.548    3.636    4.353    4.481
 qs_ot_p2m_taylor                  3480 11.2    0.035    0.037    4.249    4.431
 dbcsr_create_new                941418 14.6    2.209    2.277    4.113    4.286
 make_images_data                170206 15.1    1.320    1.663    3.102    3.895
 dbcsr_make_images_dense         143598 14.4    1.047    1.071    3.174    3.890
 copy_dbcsr_to_fm                  6247 12.0    0.068    0.071    3.246    3.363
 dbcsr_complete_redistribute      12124 13.1    0.365    0.409    2.885    2.988
 rs_grid_zero                      2966 12.1    2.747    2.936    2.747    2.936
 dbcsr_make_dense_low            214792 15.1    1.056    1.101    1.771    2.830
 -------------------------------------------------------------------------------

 The number of warnings for this run is : 0
 
 -------------------------------------------------------------------------------
  **** **** ******  **  PROGRAM ENDED AT                 2018-09-28 11:55:18.678
 ***** ** ***  *** **   PROGRAM RAN ON                                      f210
 **    ****   ******    PROGRAM RAN BY                                    ongari
 ***** **    ** ** **   PROGRAM PROCESS ID                                 21176
  **** **  *******  **  PROGRAM STOPPED IN /home/ongari/x_corso_bonella/4_cp2k/5
                                           _water-Ne/1_geoopt
