 DBCSR| Multiplication driver                                               BLAS
 DBCSR| Multrec recursion limit                                              512
 DBCSR| Multiplication stack size                                           1000
 DBCSR| Maximum elements for images                                    UNLIMITED
 DBCSR| Multiplicative factor virtual images                                   1
 DBCSR| Multiplication size stacks                                             3
 DBCSR| Number of 3D layers                                               SINGLE
 DBCSR| Use MPI memory allocation                                              T
 DBCSR| Use RMA algorithm                                                      F
 DBCSR| Use Communication thread                                               T
 DBCSR| Communication thread load                                             87


  **** **** ******  **  PROGRAM STARTED AT               2018-10-09 08:25:25.723
 ***** ** ***  *** **   PROGRAM STARTED ON                                  g013
 **    ****   ******    PROGRAM STARTED BY                                 macer
 ***** **    ** ** **   PROGRAM PROCESS ID                                 30260
  **** **  *******  **  PROGRAM STARTED IN     /home/macer/CuOH2_CO2_folder/3_cu

 CP2K| version string:                                          CP2K version 5.1
 CP2K| source code revision number:                                    svn:18091
 CP2K| cp2kflags: libint fftw3 pexsi parallel mpi3 scalapack libderiv_max_am1=5 
 CP2K|            libint_max_am=6
 CP2K| is freely available from                            https://www.cp2k.org/
 CP2K| Program compiled at                          Thu Jul 5 10:57:58 CEST 2018
 CP2K| Program compiled on                                                  g005
 CP2K| Program compiled for                  linux-rhel7-x86_S6g1_Mellanox-intel
 CP2K| Data directory path    /dev/shm/scitasbuild/spack-stage/spack-stage-Kdd_n
 CP2K| Input file name                                                  CP2K.inp
 
 GLOBAL| Force Environment number                                              1
 GLOBAL| Basis set file name                                      ./BASIS_MOLOPT
 GLOBAL| Potential file name                                    ./GTH_POTENTIALS
 GLOBAL| MM Potential file name                                     MM_POTENTIAL
 GLOBAL| Coordinate file name                                      __STD_INPUT__
 GLOBAL| Method name                                                        CP2K
 GLOBAL| Project name                                                       cp2k
 GLOBAL| Preferred FFT library                                             FFTW3
 GLOBAL| Preferred diagonalization lib.                                       SL
 GLOBAL| Run type                                                         ENERGY
 GLOBAL| All-to-all communication in single precision                          F
 GLOBAL| FFTs using library dependent lengths                                  F
 GLOBAL| Global print level                                               MEDIUM
 GLOBAL| Total number of message passing processes                            49
 GLOBAL| Number of threads for this process                                    1
 GLOBAL| This output is from process                                           0
 GLOBAL| CPU model name :  Intel(R) Xeon(R) Gold 6132 CPU @ 2.60GHz

 MEMORY| system memory details [Kb]
 MEMORY|                        rank 0           min           max       average
 MEMORY| MemTotal            197738988     197738988     197738988     197738988
 MEMORY| MemFree             177982132     177982132     179546700     178748416
 MEMORY| Buffers                 23620         23620         26084         24826
 MEMORY| Cached                 274988        264824        274988        270009
 MEMORY| Slab                  3472652       2404348       3472652       2949401
 MEMORY| SReclaimable          1391496        977060       1391496       1188506
 MEMORY| MemLikelyFree       179672236     179672236     180814668     180231760


 *** Fundamental physical constants (SI units) ***

 *** Literature: B. J. Mohr and B. N. Taylor,
 ***             CODATA recommended values of the fundamental physical
 ***             constants: 2006, Web Version 5.1
 ***             http://physics.nist.gov/constants

 Speed of light in vacuum [m/s]                             2.99792458000000E+08
 Magnetic constant or permeability of vacuum [N/A**2]       1.25663706143592E-06
 Electric constant or permittivity of vacuum [F/m]          8.85418781762039E-12
 Planck constant (h) [J*s]                                  6.62606896000000E-34
 Planck constant (h-bar) [J*s]                              1.05457162825177E-34
 Elementary charge [C]                                      1.60217648700000E-19
 Electron mass [kg]                                         9.10938215000000E-31
 Electron g factor [ ]                                     -2.00231930436220E+00
 Proton mass [kg]                                           1.67262163700000E-27
 Fine-structure constant                                    7.29735253760000E-03
 Rydberg constant [1/m]                                     1.09737315685270E+07
 Avogadro constant [1/mol]                                  6.02214179000000E+23
 Boltzmann constant [J/K]                                   1.38065040000000E-23
 Atomic mass unit [kg]                                      1.66053878200000E-27
 Bohr radius [m]                                            5.29177208590000E-11

 *** Conversion factors ***

 [u] -> [a.u.]                                              1.82288848426455E+03
 [Angstrom] -> [Bohr] = [a.u.]                              1.88972613288564E+00
 [a.u.] = [Bohr] -> [Angstrom]                              5.29177208590000E-01
 [a.u.] -> [s]                                              2.41888432650478E-17
 [a.u.] -> [fs]                                             2.41888432650478E-02
 [a.u.] -> [J]                                              4.35974393937059E-18
 [a.u.] -> [N]                                              8.23872205491840E-08
 [a.u.] -> [K]                                              3.15774647902944E+05
 [a.u.] -> [kJ/mol]                                         2.62549961709828E+03
 [a.u.] -> [kcal/mol]                                       6.27509468713739E+02
 [a.u.] -> [Pa]                                             2.94210107994716E+13
 [a.u.] -> [bar]                                            2.94210107994716E+08
 [a.u.] -> [atm]                                            2.90362800883016E+08
 [a.u.] -> [eV]                                             2.72113838565563E+01
 [a.u.] -> [Hz]                                             6.57968392072181E+15
 [a.u.] -> [1/cm] (wave numbers)                            2.19474631370540E+05
 [a.u./Bohr**2] -> [1/cm]                                   5.14048714338585E+03
 

 CELL_TOP| Volume [angstrom^3]:                                         3375.000
 CELL_TOP| Vector a [angstrom    15.000     0.000     0.000    |a| =      15.000
 CELL_TOP| Vector b [angstrom     0.000    15.000     0.000    |b| =      15.000
 CELL_TOP| Vector c [angstrom     0.000     0.000    15.000    |c| =      15.000
 CELL_TOP| Angle (b,c), alpha [degree]:                                   90.000
 CELL_TOP| Angle (a,c), beta  [degree]:                                   90.000
 CELL_TOP| Angle (a,b), gamma [degree]:                                   90.000
 CELL_TOP| Numerically orthorhombic:                                         YES
 
 GENERATE|  Preliminary Number of Bonds generated:                             0
 GENERATE|  Achieved consistency in connectivity generation.

 CELL| Volume [angstrom^3]:                                             3375.000
 CELL| Vector a [angstrom]:      15.000     0.000     0.000    |a| =      15.000
 CELL| Vector b [angstrom]:       0.000    15.000     0.000    |b| =      15.000
 CELL| Vector c [angstrom]:       0.000     0.000    15.000    |c| =      15.000
 CELL| Angle (b,c), alpha [degree]:                                       90.000
 CELL| Angle (a,c), beta  [degree]:                                       90.000
 CELL| Angle (a,b), gamma [degree]:                                       90.000
 CELL| Numerically orthorhombic:                                             YES

 CELL_REF| Volume [angstrom^3]:                                         3375.000
 CELL_REF| Vector a [angstrom    15.000     0.000     0.000    |a| =      15.000
 CELL_REF| Vector b [angstrom     0.000    15.000     0.000    |b| =      15.000
 CELL_REF| Vector c [angstrom     0.000     0.000    15.000    |c| =      15.000
 CELL_REF| Angle (b,c), alpha [degree]:                                   90.000
 CELL_REF| Angle (a,c), beta  [degree]:                                   90.000
 CELL_REF| Angle (a,b), gamma [degree]:                                   90.000
 CELL_REF| Numerically orthorhombic:                                         YES

 *******************************************************************************
 *******************************************************************************
 **                                                                           **
 **     #####                         ##              ##                      **
 **    ##   ##            ##          ##              ##                      **
 **   ##     ##                       ##            ######                    **
 **   ##     ##  ##   ##  ##   #####  ##  ##   ####   ##    #####    #####    **
 **   ##     ##  ##   ##  ##  ##      ## ##   ##      ##   ##   ##  ##   ##   **
 **   ##  ## ##  ##   ##  ##  ##      ####     ###    ##   ######   ######    **
 **    ##  ###   ##   ##  ##  ##      ## ##      ##   ##   ##       ##        **
 **     #######   #####   ##   #####  ##  ##  ####    ##    #####   ##        **
 **           ##                                                    ##        **
 **                                                                           **
 **                                                ... make the atoms dance   **
 **                                                                           **
 **            Copyright (C) by CP2K developers group (2000 - 2017)           **
 **                                                                           **
 *******************************************************************************

 DFT| Spin unrestricted (spin-polarized) Kohn-Sham calculation               UKS
 DFT| Multiplicity                                                             2
 DFT| Number of spin states                                                    2
 DFT| Charge                                                                   0
 DFT| Self-interaction correction (SIC)                                       NO
 DFT| Cutoffs: density                                              1.000000E-10
 DFT|          gradient                                             1.000000E-10
 DFT|          tau                                                  1.000000E-10
 DFT|          cutoff_smoothing_range                               0.000000E+00
 DFT| XC density smoothing                                                  NONE
 DFT| XC derivatives                                                          PW
 FUNCTIONAL| ROUTINE=NEW
 FUNCTIONAL| PBE:
 FUNCTIONAL| J.P.Perdew, K.Burke, M.Ernzerhof, Phys. Rev. Letter, vol. 77, n 18,
 FUNCTIONAL|  pp. 3865-3868, (1996){spin polarized}                             
 vdW POTENTIAL|                                                   Pair Potential
 vdW POTENTIAL|          DFT-D3 (Version 3.1)
 vdW POTENTIAL|          Potential Form: S. Grimme et al, JCP 132: 154104 (2010)
 vdW POTENTIAL|          BJ Damping: S. Grimme et al, JCC 32: 1456 (2011)
 vdW POTENTIAL|          Cutoff Radius [Bohr]:                             20.00
 vdW POTENTIAL|          s6 Scaling Factor:                               1.0000
 vdW POTENTIAL|          a1 Damping Factor:                               0.4289
 vdW POTENTIAL|          s8 Scaling Factor:                               0.7875
 vdW POTENTIAL|          a2 Damping Factor:                               4.4407
 vdW POTENTIAL|          Cutoff for CN calculation:                   0.1000E-05

 QS| Method:                                                                 GPW
 QS| Density plane wave grid type                        NON-SPHERICAL FULLSPACE
 QS| Number of grid levels:                                                    4
 QS| Density cutoff [a.u.]:                                                200.0
 QS| Multi grid cutoff [a.u.]: 1) grid level                               200.0
 QS|                           2) grid level                                66.7
 QS|                           3) grid level                                22.2
 QS|                           4) grid level                                 7.4
 QS| Grid level progression factor:                                          3.0
 QS| Relative density cutoff [a.u.]:                                        25.0
 QS| Consistent realspace mapping and integration 
 QS| Interaction thresholds: eps_pgf_orb:                                1.0E-05
 QS|                         eps_filter_matrix:                          0.0E+00
 QS|                         eps_core_charge:                            1.0E-12
 QS|                         eps_rho_gspace:                             1.0E-10
 QS|                         eps_rho_rspace:                             1.0E-10
 QS|                         eps_gvg_rspace:                             1.0E-05
 QS|                         eps_ppl:                                    1.0E-02
 QS|                         eps_ppnl:                                   1.0E-07


 ATOMIC KIND INFORMATION

  1. Atomic kind: Cu                                    Number of atoms:       1

     Orbital Basis Set                                        DZVP-MOLOPT-SR-GTH

       Number of orbital shell sets:                                           1
       Number of orbital shells:                                               7
       Number of primitive Cartesian functions:                                6
       Number of Cartesian basis functions:                                   30
       Number of spherical basis functions:                                   25
       Norm type:                                                              2

       Normalised Cartesian orbitals:

                        Set   Shell   Orbital            Exponent    Coefficient

                          1       1    2s                5.804051       0.045596
                                                         2.947778      -0.139279
                                                         1.271621       0.214572
                                                         0.517174       0.085605
                                                         0.198007      -0.138200
                                                         0.061684      -0.053295

                          1       2    3s                5.804051       0.130403
                                                         2.947778      -0.161341
                                                         1.271621      -0.101039
                                                         0.517174      -0.345250
                                                         0.198007       0.499925
                                                         0.061684      -0.162382

                          1       3    3px               5.804051      -0.066551
                                                         2.947778       0.111915
                                                         1.271621      -0.204459
                                                         0.517174       0.040237
                                                         0.198007       0.099394
                                                         0.061684       0.024283
                          1       3    3py               5.804051      -0.066551
                                                         2.947778       0.111915
                                                         1.271621      -0.204459
                                                         0.517174       0.040237
                                                         0.198007       0.099394
                                                         0.061684       0.024283
                          1       3    3pz               5.804051      -0.066551
                                                         2.947778       0.111915
                                                         1.271621      -0.204459
                                                         0.517174       0.040237
                                                         0.198007       0.099394
                                                         0.061684       0.024283

                          1       4    4px               5.804051      -0.329266
                                                         2.947778       0.140173
                                                         1.271621       0.545791
                                                         0.517174       0.280404
                                                         0.198007      -0.321326
                                                         0.061684       0.055470
                          1       4    4py               5.804051      -0.329266
                                                         2.947778       0.140173
                                                         1.271621       0.545791
                                                         0.517174       0.280404
                                                         0.198007      -0.321326
                                                         0.061684       0.055470
                          1       4    4pz               5.804051      -0.329266
                                                         2.947778       0.140173
                                                         1.271621       0.545791
                                                         0.517174       0.280404
                                                         0.198007      -0.321326
                                                         0.061684       0.055470

                          1       5    4dx2              5.804051       9.381621
                                                         2.947778       3.660256
                                                         1.271621       0.792510
                                                         0.517174       0.128389
                                                         0.198007       0.013938
                                                         0.061684       0.000367
                          1       5    4dxy              5.804051      16.249444
                                                         2.947778       6.339749
                                                         1.271621       1.372667
                                                         0.517174       0.222377
                                                         0.198007       0.024141
                                                         0.061684       0.000636
                          1       5    4dxz              5.804051      16.249444
                                                         2.947778       6.339749
                                                         1.271621       1.372667
                                                         0.517174       0.222377
                                                         0.198007       0.024141
                                                         0.061684       0.000636
                          1       5    4dy2              5.804051       9.381621
                                                         2.947778       3.660256
                                                         1.271621       0.792510
                                                         0.517174       0.128389
                                                         0.198007       0.013938
                                                         0.061684       0.000367
                          1       5    4dyz              5.804051      16.249444
                                                         2.947778       6.339749
                                                         1.271621       1.372667
                                                         0.517174       0.222377
                                                         0.198007       0.024141
                                                         0.061684       0.000636
                          1       5    4dz2              5.804051       9.381621
                                                         2.947778       3.660256
                                                         1.271621       0.792510
                                                         0.517174       0.128389
                                                         0.198007       0.013938
                                                         0.061684       0.000367

                          1       6    5dx2              5.804051      -3.189865
                                                         2.947778      -1.988097
                                                         1.271621      -0.492759
                                                         0.517174       0.080183
                                                         0.198007       0.017863
                                                         0.061684       0.009947
                          1       6    5dxy              5.804051      -5.525009
                                                         2.947778      -3.443486
                                                         1.271621      -0.853484
                                                         0.517174       0.138882
                                                         0.198007       0.030940
                                                         0.061684       0.017228
                          1       6    5dxz              5.804051      -5.525009
                                                         2.947778      -3.443486
                                                         1.271621      -0.853484
                                                         0.517174       0.138882
                                                         0.198007       0.030940
                                                         0.061684       0.017228
                          1       6    5dy2              5.804051      -3.189865
                                                         2.947778      -1.988097
                                                         1.271621      -0.492759
                                                         0.517174       0.080183
                                                         0.198007       0.017863
                                                         0.061684       0.009947
                          1       6    5dyz              5.804051      -5.525009
                                                         2.947778      -3.443486
                                                         1.271621      -0.853484
                                                         0.517174       0.138882
                                                         0.198007       0.030940
                                                         0.061684       0.017228
                          1       6    5dz2              5.804051      -3.189865
                                                         2.947778      -1.988097
                                                         1.271621      -0.492759
                                                         0.517174       0.080183
                                                         0.198007       0.017863
                                                         0.061684       0.009947

                          1       7    5fx3              5.804051      -1.183361
                                                         2.947778       0.859927
                                                         1.271621      -0.674185
                                                         0.517174      -0.156063
                                                         0.198007      -0.018231
                                                         0.061684       0.001772
                          1       7    5fx2y             5.804051      -2.646075
                                                         2.947778       1.922855
                                                         1.271621      -1.507524
                                                         0.517174      -0.348968
                                                         0.198007      -0.040766
                                                         0.061684       0.003961
                          1       7    5fx2z             5.804051      -2.646075
                                                         2.947778       1.922855
                                                         1.271621      -1.507524
                                                         0.517174      -0.348968
                                                         0.198007      -0.040766
                                                         0.061684       0.003961
                          1       7    5fxy2             5.804051      -2.646075
                                                         2.947778       1.922855
                                                         1.271621      -1.507524
                                                         0.517174      -0.348968
                                                         0.198007      -0.040766
                                                         0.061684       0.003961
                          1       7    5fxyz             5.804051      -4.583137
                                                         2.947778       3.330483
                                                         1.271621      -2.611108
                                                         0.517174      -0.604431
                                                         0.198007      -0.070608
                                                         0.061684       0.006861
                          1       7    5fxz2             5.804051      -2.646075
                                                         2.947778       1.922855
                                                         1.271621      -1.507524
                                                         0.517174      -0.348968
                                                         0.198007      -0.040766
                                                         0.061684       0.003961
                          1       7    5fy3              5.804051      -1.183361
                                                         2.947778       0.859927
                                                         1.271621      -0.674185
                                                         0.517174      -0.156063
                                                         0.198007      -0.018231
                                                         0.061684       0.001772
                          1       7    5fy2z             5.804051      -2.646075
                                                         2.947778       1.922855
                                                         1.271621      -1.507524
                                                         0.517174      -0.348968
                                                         0.198007      -0.040766
                                                         0.061684       0.003961
                          1       7    5fyz2             5.804051      -2.646075
                                                         2.947778       1.922855
                                                         1.271621      -1.507524
                                                         0.517174      -0.348968
                                                         0.198007      -0.040766
                                                         0.061684       0.003961
                          1       7    5fz3              5.804051      -1.183361
                                                         2.947778       0.859927
                                                         1.271621      -0.674185
                                                         0.517174      -0.156063
                                                         0.198007      -0.018231
                                                         0.061684       0.001772

     GTH Potential information for                                       GTH-PBE

       Description:                       Goedecker-Teter-Hutter pseudopotential
                                           Goedecker et al., PRB 54, 1703 (1996)
                                          Hartwigsen et al., PRB 58, 3641 (1998)
                                                      Krack, TCA 114, 145 (2005)

       Gaussian exponent of the core charge distribution:               1.779993
       Electronic configuration (s p d ...):                           1   0  10

       Parameters of the local part of the GTH pseudopotential:

                          rloc        C1          C2          C3          C4
                        0.530000

       Parameters of the non-local part of the GTH pseudopotential:

                   l      r(l)      h(i,j,l)

                   0    0.431355    9.693805   -6.470165    1.935952
                                   -6.470165   11.501774   -4.998607
                                    1.935952   -4.998607    3.967521
                   1    0.561392    2.545473   -0.784636
                                   -0.784636    0.928394
                   2    0.264555  -12.828614

  2. Atomic kind: O                                     Number of atoms:       2

     Orbital Basis Set                                        DZVP-MOLOPT-SR-GTH

       Number of orbital shell sets:                                           1
       Number of orbital shells:                                               5
       Number of primitive Cartesian functions:                                5
       Number of Cartesian basis functions:                                   14
       Number of spherical basis functions:                                   13
       Norm type:                                                              2

       Normalised Cartesian orbitals:

                        Set   Shell   Orbital            Exponent    Coefficient

                          1       1    2s               10.389228       0.396646
                                                         3.849621       0.208811
                                                         1.388401      -0.301641
                                                         0.496955      -0.274061
                                                         0.162492      -0.033677

                          1       2    3s               10.389228       0.303673
                                                         3.849621       0.240943
                                                         1.388401      -0.313066
                                                         0.496955      -0.043055
                                                         0.162492       0.213991

                          1       3    3px              10.389228      -1.530415
                                                         3.849621      -1.371928
                                                         1.388401      -0.761951
                                                         0.496955      -0.253695
                                                         0.162492      -0.035541
                          1       3    3py              10.389228      -1.530415
                                                         3.849621      -1.371928
                                                         1.388401      -0.761951
                                                         0.496955      -0.253695
                                                         0.162492      -0.035541
                          1       3    3pz              10.389228      -1.530415
                                                         3.849621      -1.371928
                                                         1.388401      -0.761951
                                                         0.496955      -0.253695
                                                         0.162492      -0.035541

                          1       4    4px              10.389228      -0.565392
                                                         3.849621      -0.038231
                                                         1.388401      -0.382373
                                                         0.496955       0.179070
                                                         0.162492       0.122714
                          1       4    4py              10.389228      -0.565392
                                                         3.849621      -0.038231
                                                         1.388401      -0.382373
                                                         0.496955       0.179070
                                                         0.162492       0.122714
                          1       4    4pz              10.389228      -0.565392
                                                         3.849621      -0.038231
                                                         1.388401      -0.382373
                                                         0.496955       0.179070
                                                         0.162492       0.122714

                          1       5    4dx2             10.389228       1.867377
                                                         3.849621       0.670994
                                                         1.388401       1.353441
                                                         0.496955       0.273538
                                                         0.162492       0.006620
                          1       5    4dxy             10.389228       3.234392
                                                         3.849621       1.162195
                                                         1.388401       2.344229
                                                         0.496955       0.473781
                                                         0.162492       0.011466
                          1       5    4dxz             10.389228       3.234392
                                                         3.849621       1.162195
                                                         1.388401       2.344229
                                                         0.496955       0.473781
                                                         0.162492       0.011466
                          1       5    4dy2             10.389228       1.867377
                                                         3.849621       0.670994
                                                         1.388401       1.353441
                                                         0.496955       0.273538
                                                         0.162492       0.006620
                          1       5    4dyz             10.389228       3.234392
                                                         3.849621       1.162195
                                                         1.388401       2.344229
                                                         0.496955       0.473781
                                                         0.162492       0.011466
                          1       5    4dz2             10.389228       1.867377
                                                         3.849621       0.670994
                                                         1.388401       1.353441
                                                         0.496955       0.273538
                                                         0.162492       0.006620

     GTH Potential information for                                       GTH-PBE

       Description:                       Goedecker-Teter-Hutter pseudopotential
                                           Goedecker et al., PRB 54, 1703 (1996)
                                          Hartwigsen et al., PRB 58, 3641 (1998)
                                                      Krack, TCA 114, 145 (2005)

       Gaussian exponent of the core charge distribution:               8.360253
       Electronic configuration (s p d ...):                               2   4

       Parameters of the local part of the GTH pseudopotential:

                          rloc        C1          C2          C3          C4
                        0.244554  -16.667215    2.487311

       Parameters of the non-local part of the GTH pseudopotential:

                   l      r(l)      h(i,j,l)

                   0    0.220956   18.337458
                   1    0.211332

  3. Atomic kind: H                                     Number of atoms:       2

     Orbital Basis Set                                        DZVP-MOLOPT-SR-GTH

       Number of orbital shell sets:                                           1
       Number of orbital shells:                                               3
       Number of primitive Cartesian functions:                                5
       Number of Cartesian basis functions:                                    5
       Number of spherical basis functions:                                    5
       Norm type:                                                              2

       Normalised Cartesian orbitals:

                        Set   Shell   Orbital            Exponent    Coefficient

                          1       1    2s               10.068468      -0.133023
                                                         2.680223      -0.177618
                                                         0.791502      -0.258419
                                                         0.239116      -0.107525
                                                         0.082193      -0.014019

                          1       2    3s               10.068468       0.344673
                                                         2.680223       1.819821
                                                         0.791502      -0.999069
                                                         0.239116       0.017430
                                                         0.082193       0.082660

                          1       3    3px              10.068468       0.155326
                                                         2.680223       0.367157
                                                         0.791502       0.311480
                                                         0.239116       0.080105
                                                         0.082193       0.033440
                          1       3    3py              10.068468       0.155326
                                                         2.680223       0.367157
                                                         0.791502       0.311480
                                                         0.239116       0.080105
                                                         0.082193       0.033440
                          1       3    3pz              10.068468       0.155326
                                                         2.680223       0.367157
                                                         0.791502       0.311480
                                                         0.239116       0.080105
                                                         0.082193       0.033440

     GTH Potential information for                                       GTH-PBE

       Description:                       Goedecker-Teter-Hutter pseudopotential
                                           Goedecker et al., PRB 54, 1703 (1996)
                                          Hartwigsen et al., PRB 58, 3641 (1998)
                                                      Krack, TCA 114, 145 (2005)

       Gaussian exponent of the core charge distribution:              12.500000
       Electronic configuration (s p d ...):                                   1

       Parameters of the local part of the GTH pseudopotential:

                          rloc        C1          C2          C3          C4
                        0.200000   -4.178900    0.724463


 MOLECULE KIND INFORMATION


 All atoms are their own molecule, skipping detailed information


 TOTAL NUMBERS AND MAXIMUM NUMBERS

  Total number of            - Atomic kinds:                                   3
                             - Atoms:                                          5
                             - Shell sets:                                     5
                             - Shells:                                        23
                             - Primitive Cartesian functions:                 26
                             - Cartesian basis functions:                     68
                             - Spherical basis functions:                     61

  Maximum angular momentum of- Orbital basis functions:                        3
                             - Local part of the GTH pseudopotential:          2
                             - Non-local part of the GTH pseudopotential:      4


 MODULE QUICKSTEP:  ATOMIC COORDINATES IN angstrom

  Atom  Kind  Element       X           Y           Z          Z(eff)       Mass

       1     1 Cu  29    5.516590    7.935725    6.992771     11.00      63.5460
       2     2 O    8    6.006736    8.828283    5.544589      6.00      15.9994
       3     3 H    1    6.967974    8.738051    5.406959      1.00       1.0079
       4     2 O    8    5.153897    7.108788    8.514862      6.00      15.9994
       5     3 H    1    4.222724    7.193749    8.787274      1.00       1.0079




 SCF PARAMETERS         Density guess:                                    ATOMIC
                        --------------------------------------------------------
                        max_scf:                                              50
                        max_scf_history:                                       0
                        max_diis:                                              4
                        --------------------------------------------------------
                        eps_scf:                                        1.00E-06
                        eps_scf_history:                                0.00E+00
                        eps_diis:                                       1.00E-01
                        eps_eigval:                                     1.00E-05
                        --------------------------------------------------------
                        level_shift [a.u.]:                                 0.00
                        --------------------------------------------------------
                        Outer loop SCF in use 
                        No variables optimised in outer loop
                        eps_scf                                         1.00E-06
                        max_scf                                               10
                        No outer loop optimization
                        step_size                                       5.00E-01

 PW_GRID| Information for grid number                                          1
 PW_GRID| Grid distributed over                                    49 processors
 PW_GRID| Real space group dimensions                                    49    1
 PW_GRID| the grid is blocked:                                                NO
 PW_GRID| Cutoff [a.u.]                                                    200.0
 PW_GRID| spherical cutoff:                                                   NO
 PW_GRID|   Bounds   1            -96      95                Points:         192
 PW_GRID|   Bounds   2            -96      95                Points:         192
 PW_GRID|   Bounds   3            -96      95                Points:         192
 PW_GRID| Volume element (a.u.^3)  0.3218E-02     Volume (a.u.^3)     22775.6292
 PW_GRID| Grid span                                                    FULLSPACE
 PW_GRID|   Distribution                         Average         Max         Min
 PW_GRID|   G-Vectors                           144446.7      144576      144384
 PW_GRID|   G-Rays                                 752.3         753         752
 PW_GRID|   Real Space Points                   144446.7      147456      110592

 PW_GRID| Information for grid number                                          2
 PW_GRID| Grid distributed over                                    49 processors
 PW_GRID| Real space group dimensions                                    49    1
 PW_GRID| the grid is blocked:                                                NO
 PW_GRID| Cutoff [a.u.]                                                     66.7
 PW_GRID| spherical cutoff:                                                   NO
 PW_GRID|   Bounds   1            -54      53                Points:         108
 PW_GRID|   Bounds   2            -54      53                Points:         108
 PW_GRID|   Bounds   3            -54      53                Points:         108
 PW_GRID| Volume element (a.u.^3)  0.1808E-01     Volume (a.u.^3)     22775.6292
 PW_GRID| Grid span                                                    FULLSPACE
 PW_GRID|   Distribution                         Average         Max         Min
 PW_GRID|   G-Vectors                            25708.4       25812       25596
 PW_GRID|   G-Rays                                 238.0         239         237
 PW_GRID|   Real Space Points                    25708.4       34992       23328

 PW_GRID| Information for grid number                                          3
 PW_GRID| Grid distributed over                                    49 processors
 PW_GRID| Real space group dimensions                                    49    1
 PW_GRID| the grid is blocked:                                                NO
 PW_GRID| Cutoff [a.u.]                                                     22.2
 PW_GRID| spherical cutoff:                                                   NO
 PW_GRID|   Bounds   1            -32      31                Points:          64
 PW_GRID|   Bounds   2            -32      31                Points:          64
 PW_GRID|   Bounds   3            -32      31                Points:          64
 PW_GRID| Volume element (a.u.^3)  0.8688E-01     Volume (a.u.^3)     22775.6292
 PW_GRID| Grid span                                                    FULLSPACE
 PW_GRID|   Distribution                         Average         Max         Min
 PW_GRID|   G-Vectors                             5349.9        5440        5248
 PW_GRID|   G-Rays                                  83.6          85          82
 PW_GRID|   Real Space Points                     5349.9        8192        4096

 PW_GRID| Information for grid number                                          4
 PW_GRID| Grid distributed over                                    49 processors
 PW_GRID| Real space group dimensions                                     7    7
 PW_GRID| the grid is blocked:                                                NO
 PW_GRID| Cutoff [a.u.]                                                      7.4
 PW_GRID| spherical cutoff:                                                   NO
 PW_GRID|   Bounds   1            -18      17                Points:          36
 PW_GRID|   Bounds   2            -18      17                Points:          36
 PW_GRID|   Bounds   3            -18      17                Points:          36
 PW_GRID| Volume element (a.u.^3)  0.4882         Volume (a.u.^3)     22775.6292
 PW_GRID| Grid span                                                    FULLSPACE
 PW_GRID|   Distribution                         Average         Max         Min
 PW_GRID|   G-Vectors                              952.2        1008         900
 PW_GRID|   G-Rays                                  26.4          28          25
 PW_GRID|   Real Space Points                      952.2        1296         900

 POISSON| Solver                                                        PERIODIC
 POISSON| Periodicity                                                        XYZ

 RS_GRID| Information for grid number                                          1
 RS_GRID|   Bounds   1            -96      95                Points:         192
 RS_GRID|   Bounds   2            -96      95                Points:         192
 RS_GRID|   Bounds   3            -96      95                Points:         192
 RS_GRID| Real space distribution over                                  7 groups
 RS_GRID| Real space distribution along direction                              2
 RS_GRID| Border size                                                         28
 RS_GRID| Real space distribution over                                  7 groups
 RS_GRID| Real space distribution along direction                              3
 RS_GRID| Border size                                                         28
 RS_GRID|   Distribution                         Average         Max         Min
 RS_GRID|   Planes                                  83.4          84          83
 RS_GRID|   Distribution                         Average         Max         Min
 RS_GRID|   Planes                                  83.4          84          83

 RS_GRID| Information for grid number                                          2
 RS_GRID|   Bounds   1            -54      53                Points:         108
 RS_GRID|   Bounds   2            -54      53                Points:         108
 RS_GRID|   Bounds   3            -54      53                Points:         108
 RS_GRID| Real space distribution over                                  7 groups
 RS_GRID| Real space distribution along direction                              2
 RS_GRID| Border size                                                         24
 RS_GRID| Real space distribution over                                  7 groups
 RS_GRID| Real space distribution along direction                              3
 RS_GRID| Border size                                                         24
 RS_GRID|   Distribution                         Average         Max         Min
 RS_GRID|   Planes                                  63.4          64          63
 RS_GRID|   Distribution                         Average         Max         Min
 RS_GRID|   Planes                                  63.4          64          63

 RS_GRID| Information for grid number                                          3
 RS_GRID|   Bounds   1            -32      31                Points:          64
 RS_GRID|   Bounds   2            -32      31                Points:          64
 RS_GRID|   Bounds   3            -32      31                Points:          64
 RS_GRID| Real space fully replicated
 RS_GRID| Group size                                                           1

 RS_GRID| Information for grid number                                          4
 RS_GRID|   Bounds   1            -18      17                Points:          36
 RS_GRID|   Bounds   2            -18      17                Points:          36
 RS_GRID|   Bounds   3            -18      17                Points:          36
 RS_GRID| Real space fully replicated
 RS_GRID| Group size                                                           1

 DISTRIBUTION OF THE PARTICLES (ROWS)
              Process row      Number of particles         Number of matrix rows
                        0                        1                            -1
                        1                        1                            -1
                        2                        1                            -1
                        3                        1                            -1
                        4                        1                            -1
                        5                        0                            -1
                        6                        0                            -1
                      Sum                        5                            -1

 DISTRIBUTION OF THE PARTICLES (COLUMNS)
              Process col      Number of particles      Number of matrix columns
                        0                        1                            -1
                        1                        1                            -1
                        2                        1                            -1
                        3                        1                            -1
                        4                        1                            -1
                        5                        0                            -1
                        6                        0                            -1
                      Sum                        5                            -1

 DISTRIBUTION OF THE NEIGHBOR LISTS
              Total number of particle pairs:                                 26
              Total number of matrix elements:                              6642
              Average number of particle pairs:                                1
              Maximum number of particle pairs:                                7
              Average number of matrix element:                              136
              Maximum number of matrix elements:                            4375


 DISTRIBUTION OF THE OVERLAP MATRIX
              Number  of non-zero blocks:                                     15
              Percentage non-zero blocks:                                 100.00
              Average number of blocks per CPU:                                1
              Maximum number of blocks per CPU:                                1
              Average number of matrix elements per CPU:                      52
              Maximum number of matrix elements per CPU:                     635

 Spin 1

 Number of electrons:                                                         13
 Number of occupied orbitals:                                                 13
 Number of molecular orbitals:                                                13

 Spin 2

 Number of electrons:                                                         12
 Number of occupied orbitals:                                                 12
 Number of molecular orbitals:                                                12

 Number of orbital functions:                                                 61
 Number of independent orbital functions:                                     61

 Extrapolation method: initial_guess

 Atomic guess: The first density matrix is obtained in terms of atomic orbitals
               and electronic configurations assigned to each atomic kind

 Guess for atomic kind: Cu

 Electronic structure
    Total number of core electrons                                         18.00
    Total number of valence electrons                                      11.00
    Total number of electrons                                              29.00
    Multiplicity                                                   not specified
    S   [  2.00  2.00  2.00] 1.00
    P   [  6.00  6.00]
    D     10.00
 

 *******************************************************************************
                  Iteration          Convergence                     Energy [au]
 *******************************************************************************
                          1         1.34628                     -47.026614018559
                          2         18.7151                     -34.210324963570
                          3         5.09582                     -46.669499324698
                          4        0.374284                     -47.674645733903
                          5        0.427710                     -47.678202772581
                          6        0.222679                     -47.687066085570
                          7        0.886961E-02                 -47.690485224550
                          8        0.122938                     -47.689443403488
                          9        0.163195E-02                 -47.690623675365
                         10        0.461023E-02                 -47.690622278001
                         11        0.244097E-02                 -47.690623427448
                         12        0.760967E-04                 -47.690623875160
                         13        0.592769E-04                 -47.690623875331
                         14        0.185543E-06                 -47.690623875596

 Energy components [Hartree]           Total Energy ::          -47.690623875596
                                        Band Energy ::           -1.733901985829
                                     Kinetic Energy ::           70.782180775588
                                   Potential Energy ::         -118.472804651184
                                      Virial (-V/T) ::            1.673765958509
                                        Core Energy ::          -88.493777294115
                                          XC Energy ::           -7.514089005747
                                     Coulomb Energy ::           48.317242424266
                       Total Pseudopotential Energy ::         -159.367714000828
                       Local Pseudopotential Energy ::         -110.592889348310
                    Nonlocal Pseudopotential Energy ::          -48.774824652518
                                        Confinement ::            0.917559311252

 Orbital energies  State     L     Occupation   Energy[a.u.]          Energy[eV]

                       1     0          1.000      -0.138206           -3.760775
 
                       1     2         10.000      -0.159570           -4.342110
 

 Total Electron Density at R=0:                                         0.000061

 Guess for atomic kind: O

 Electronic structure
    Total number of core electrons                                          2.00
    Total number of valence electrons                                       6.00
    Total number of electrons                                               8.00
    Multiplicity                                                   not specified
    S   [  2.00] 2.00
    P      4.00
 

 *******************************************************************************
                  Iteration          Convergence                     Energy [au]
 *******************************************************************************
                          1         1.67054                     -14.836051221656
                          2         2.12470                     -14.897900780399
                          3        0.100150                     -15.654295189160
                          4        0.189307E-01                 -15.655828842238
                          5        0.464435E-02                 -15.655882433232
                          6        0.259395E-02                 -15.655884790195
                          7        0.516014E-04                 -15.655885857622
                          8        0.157374E-05                 -15.655885858066
                          9        0.783512E-06                 -15.655885858066

 Energy components [Hartree]           Total Energy ::          -15.655885858066
                                        Band Energy ::           -2.983129541149
                                     Kinetic Energy ::           11.754767937471
                                   Potential Energy ::          -27.410653795537
                                      Virial (-V/T) ::            2.331875366774
                                        Core Energy ::          -26.153524299614
                                          XC Energy ::           -3.157392735430
                                     Coulomb Energy ::           13.655031176977
                       Total Pseudopotential Energy ::          -37.943031004163
                       Local Pseudopotential Energy ::          -39.220423834999
                    Nonlocal Pseudopotential Energy ::            1.277392830837
                                        Confinement ::            0.347387670777

 Orbital energies  State     L     Occupation   Energy[a.u.]          Energy[eV]

                       1     0          2.000      -0.861523          -23.443221
 
                       1     1          4.000      -0.315021           -8.572160
 

 Total Electron Density at R=0:                                         0.000093

 Guess for atomic kind: H

 Electronic structure
    Total number of core electrons                                          0.00
    Total number of valence electrons                                       1.00
    Total number of electrons                                               1.00
    Multiplicity                                                   not specified
    S      1.00
 

 *******************************************************************************
                  Iteration          Convergence                     Energy [au]
 *******************************************************************************
                          1        0.250972E-02                  -0.375256815885
                          2        0.570752E-04                  -0.375258666164
                          3        0.832405E-09                  -0.375258667122

 Energy components [Hartree]           Total Energy ::           -0.375258667122
                                        Band Energy ::           -0.076317618391
                                     Kinetic Energy ::            0.771356566341
                                   Potential Energy ::           -1.146615233463
                                      Virial (-V/T) ::            1.486491829455
                                        Core Energy ::           -0.456090715790
                                          XC Energy ::           -0.314218627334
                                     Coulomb Energy ::            0.395050676003
                       Total Pseudopotential Energy ::           -1.238482237174
                       Local Pseudopotential Energy ::           -1.238482237174
                    Nonlocal Pseudopotential Energy ::            0.000000000000
                                        Confinement ::            0.110349550431

 Orbital energies  State     L     Occupation   Energy[a.u.]          Energy[eV]

                       1     0          1.000      -0.076318           -2.076708
 

 Total Electron Density at R=0:                                         0.425022

 Spin 1
 Re-scaling the density matrix to get the right number of electrons for spin 1
                  # Electrons              Trace(P)               Scaling factor
                           13                12.500                        1.040

 Spin 2
 Re-scaling the density matrix to get the right number of electrons for spin 2
                  # Electrons              Trace(P)               Scaling factor
                           12                12.500                        0.960


 SCF WAVEFUNCTION OPTIMIZATION

  ----------------------------------- OT ---------------------------------------
  Minimizer      : DIIS                : direct inversion
                                         in the iterative subspace
                                         using   7 DIIS vectors
                                         safer DIIS on
  Preconditioner : FULL_ALL            : diagonalization, state selective
  Precond_solver : DEFAULT
  stepsize       :    0.15000000                  energy_gap     :    0.08000000
  eps_taylor     :   0.10000E-15                  max_taylor     :             4
  ----------------------------------- OT ---------------------------------------

  Step     Update method      Time    Convergence         Total energy    Change
  ------------------------------------------------------------------------------
     1 OT DIIS     0.15E+00    0.7     0.11444883       -79.2448517428 -7.92E+01
     2 OT DIIS     0.15E+00    0.7     0.15759963       -79.1756278633  6.92E-02
     3 OT DIIS     0.15E+00    0.7     0.05965796       -80.2158692099 -1.04E+00
     4 OT DIIS     0.15E+00    0.7     0.03186006       -80.6130202545 -3.97E-01
     5 OT DIIS     0.15E+00    0.7     0.02351841       -80.7590137553 -1.46E-01
     6 OT DIIS     0.15E+00    0.7     0.01829103       -80.8643120874 -1.05E-01
     7 OT DIIS     0.15E+00    0.7     0.01594578       -80.9564134538 -9.21E-02
     8 OT SD       0.15E+00    0.7     0.01676404       -81.0116387373 -5.52E-02
     9 OT SD       0.15E+00    0.7     0.01587183       -81.0726480528 -6.10E-02
    10 OT DIIS     0.15E+00    0.7     0.01356906       -81.1249720498 -5.23E-02
    11 OT DIIS     0.15E+00    0.7     0.01686869       -81.1273200268 -2.35E-03
    12 OT DIIS     0.15E+00    0.7     0.01367694       -81.1575610867 -3.02E-02
    13 OT DIIS     0.15E+00    0.7     0.00863210       -81.1965248978 -3.90E-02
    14 OT DIIS     0.15E+00    0.7     0.00439014       -81.2183728626 -2.18E-02
    15 OT DIIS     0.15E+00    0.7     0.00343314       -81.2258451720 -7.47E-03
    16 OT DIIS     0.15E+00    0.7     0.00260604       -81.2327893946 -6.94E-03
    17 OT DIIS     0.15E+00    0.7     0.00238092       -81.2359248020 -3.14E-03
    18 OT DIIS     0.15E+00    0.7     0.00221320       -81.2386888764 -2.76E-03
    19 OT SD       0.15E+00    0.7     0.00244590       -81.2410584157 -2.37E-03
    20 OT SD       0.15E+00    0.7     0.00231429       -81.2423318100 -1.27E-03
    21 OT SD       0.15E+00    0.7     0.00236393       -81.2435579237 -1.23E-03
    22 OT SD       0.15E+00    0.7     0.00244010       -81.2448492392 -1.29E-03
    23 OT SD       0.15E+00    0.7     0.00253154       -81.2462314270 -1.38E-03
    24 OT SD       0.15E+00    0.7     0.00263469       -81.2477227177 -1.49E-03
    25 OT SD       0.15E+00    0.7     0.00274727       -81.2493412604 -1.62E-03
    26 OT SD       0.15E+00    0.7     0.00286584       -81.2511019943 -1.76E-03
    27 OT SD       0.15E+00    0.7     0.00298672       -81.2530184464 -1.92E-03
    28 OT SD       0.15E+00    0.7     0.00310453       -81.2550974469 -2.08E-03
    29 OT SD       0.15E+00    0.7     0.00321351       -81.2573401347 -2.24E-03
    30 OT SD       0.15E+00    0.7     0.00330660       -81.2597358855 -2.40E-03
    31 OT SD       0.15E+00    0.7     0.00337711       -81.2622639403 -2.53E-03
    32 OT SD       0.15E+00    0.7     0.00341860       -81.2648890699 -2.63E-03
    33 OT DIIS     0.15E+00    0.7     0.00342660       -81.2675665513 -2.68E-03
    34 OT DIIS     0.15E+00    0.7     0.01015643       -81.2587485668  8.82E-03
    35 OT SD       0.15E+00    0.7     0.00821723       -81.2603479959 -1.60E-03
    36 OT SD       0.15E+00    0.7     0.00656553       -81.2660531096 -5.71E-03
    37 OT SD       0.15E+00    0.7     0.00584035       -81.2701690055 -4.12E-03
    38 OT SD       0.15E+00    0.7     0.00542158       -81.2734685106 -3.30E-03
    39 OT DIIS     0.15E+00    0.7     0.00513459       -81.2764428184 -2.97E-03
    40 OT DIIS     0.15E+00    0.7     0.00267846       -81.2865971329 -1.02E-02
    41 OT DIIS     0.15E+00    0.7     0.00355765       -81.2867227257 -1.26E-04
    42 OT DIIS     0.15E+00    0.7     0.00192790       -81.2909525748 -4.23E-03
    43 OT DIIS     0.15E+00    0.7     0.00132547       -81.2936218330 -2.67E-03
    44 OT DIIS     0.15E+00    0.7     0.00089592       -81.2942018984 -5.80E-04
    45 OT DIIS     0.15E+00    0.7     0.00078317       -81.2945296693 -3.28E-04
    46 OT DIIS     0.15E+00    0.7     0.00065700       -81.2948696163 -3.40E-04
    47 OT DIIS     0.15E+00    0.7     0.00062633       -81.2951631205 -2.94E-04
    48 OT DIIS     0.15E+00    0.7     0.00057656       -81.2952561731 -9.31E-05
    49 OT DIIS     0.15E+00    0.7     0.00053063       -81.2954800216 -2.24E-04
    50 OT DIIS     0.15E+00    0.7     0.00050263       -81.2957139280 -2.34E-04

  Leaving inner SCF loop after reaching    50 steps.


  Electronic density on regular grids:        -24.9999999990        0.0000000010
  Core density on regular grids:               24.9999999983       -0.0000000017
  Total charge density on r-space grids:       -0.0000000007
  Total charge density g-space grids:          -0.0000000007

  Overlap energy of the core charge distribution:               0.00000043123130
  Self energy of the core charge distribution:               -150.27613529203703
  Core Hamiltonian energy:                                     46.21680173936896
  Hartree energy:                                              38.10666915503718
  Exchange-correlation energy:                                -15.34109842634077
  Dispersion energy:                                           -0.00195153526587

  Total energy:                                               -81.29571392800621

  outer SCF iter =    1 RMS gradient =   0.50E-03 energy =        -81.2957139280

  ----------------------------------- OT ---------------------------------------
  Minimizer      : DIIS                : direct inversion
                                         in the iterative subspace
                                         using   7 DIIS vectors
                                         safer DIIS on
  Preconditioner : FULL_ALL            : diagonalization, state selective
  Precond_solver : DEFAULT
  stepsize       :    0.15000000                  energy_gap     :    0.08000000
  eps_taylor     :   0.10000E-15                  max_taylor     :             4
  ----------------------------------- OT ---------------------------------------

  Step     Update method      Time    Convergence         Total energy    Change
  ------------------------------------------------------------------------------
     1 OT DIIS     0.15E+00    1.4     0.00300125       -81.2960229682 -3.09E-04
     2 OT DIIS     0.15E+00    0.7     0.00211916       -81.2977728419 -1.75E-03
     3 OT DIIS     0.15E+00    0.7     0.00054140       -81.2995359523 -1.76E-03
     4 OT DIIS     0.15E+00    0.7     0.00038601       -81.2996116598 -7.57E-05
     5 OT DIIS     0.15E+00    0.7     0.00030242       -81.2996418692 -3.02E-05
     6 OT DIIS     0.15E+00    0.7     0.00020239       -81.2996997545 -5.79E-05
     7 OT DIIS     0.15E+00    0.7     0.00015024       -81.2997337026 -3.39E-05
     8 OT DIIS     0.15E+00    0.7     0.00011700       -81.2997469196 -1.32E-05
     9 OT DIIS     0.15E+00    0.7     0.00008556       -81.2997575028 -1.06E-05
    10 OT DIIS     0.15E+00    0.7     0.00004114       -81.2997669511 -9.45E-06
    11 OT DIIS     0.15E+00    0.7     0.00002691       -81.2997681606 -1.21E-06
    12 OT DIIS     0.15E+00    0.7     0.00001566       -81.2997686692 -5.09E-07
    13 OT DIIS     0.15E+00    0.7     0.00000778       -81.2997688301 -1.61E-07
    14 OT DIIS     0.15E+00    0.7     0.00000447       -81.2997688613 -3.12E-08
    15 OT DIIS     0.15E+00    0.7     0.00000301       -81.2997688690 -7.63E-09
    16 OT DIIS     0.15E+00    0.7     0.00000176       -81.2997688720 -2.99E-09
    17 OT DIIS     0.15E+00    0.7     0.00000100       -81.2997688733 -1.34E-09

  *** SCF run converged in    17 steps ***


  Electronic density on regular grids:        -24.9999999990        0.0000000010
  Core density on regular grids:               24.9999999983       -0.0000000017
  Total charge density on r-space grids:       -0.0000000007
  Total charge density g-space grids:          -0.0000000007

  Overlap energy of the core charge distribution:               0.00000043123130
  Self energy of the core charge distribution:               -150.27613529203703
  Core Hamiltonian energy:                                     46.23211029429062
  Hartree energy:                                              38.09357850824765
  Exchange-correlation energy:                                -15.34737127975467
  Dispersion energy:                                           -0.00195153526587

  Total energy:                                               -81.29976887328799

  outer SCF iter =    2 RMS gradient =   0.10E-05 energy =        -81.2997688733
  outer SCF loop converged in   2 iterations or   67 steps


  Integrated absolute spin density  :                               1.1141391619
  Ideal and single determinant S**2 :                    0.750000       0.755063

 ENERGY| Total FORCE_EVAL ( QS ) energy (a.u.):              -81.299768873287988


 -------------------------------------------------------------------------------
 -                                                                             -
 -                                DBCSR STATISTICS                             -
 -                                                                             -
 -------------------------------------------------------------------------------
 COUNTER                                    TOTAL       BLAS       SMM       ACC
 flops    13 x     5 x    12               106080     100.0%      0.0%      0.0%
 flops    13 x     5 x    13               114920     100.0%      0.0%      0.0%
 flops     5 x     5 x    12               122400     100.0%      0.0%      0.0%
 flops     5 x     5 x    13               132600     100.0%      0.0%      0.0%
 flops     5 x    13 x    12               318240     100.0%      0.0%      0.0%
 flops    25 x     5 x    12               408000     100.0%      0.0%      0.0%
 flops    25 x     5 x    13               442000     100.0%      0.0%      0.0%
 flops     5 x    12 x     5               688800     100.0%      0.0%      0.0%
 flops     5 x    13 x     5               743600     100.0%      0.0%      0.0%
 flops    12 x    12 x     5               777600     100.0%      0.0%      0.0%
 flops    13 x    13 x    12               827424     100.0%      0.0%      0.0%
 flops     5 x    12 x    25               894000     100.0%      0.0%      0.0%
 flops     5 x    13 x    25               962000     100.0%      0.0%      0.0%
 flops     5 x    12 x    12               970560     100.0%      0.0%      0.0%
 flops    25 x    25 x    12              1020000     100.0%      0.0%      0.0%
 flops    13 x    25 x    12              1060800     100.0%      0.0%      0.0%
 flops    25 x    25 x    13              1105000     100.0%      0.0%      0.0%
 flops    13 x    25 x    13              1149200     100.0%      0.0%      0.0%
 flops    25 x    12 x     5              1722000     100.0%      0.0%      0.0%
 flops     5 x    12 x    13              1790880     100.0%      0.0%      0.0%
 flops    13 x    12 x     5              1790880     100.0%      0.0%      0.0%
 flops    25 x    13 x     5              1859000     100.0%      0.0%      0.0%
 flops    12 x    12 x    13              2021760     100.0%      0.0%      0.0%
 flops    12 x    12 x    12              2191104     100.0%      0.0%      0.0%
 flops    25 x    12 x    25              2235000     100.0%      0.0%      0.0%
 flops    13 x    12 x    25              2324400     100.0%      0.0%      0.0%
 flops    25 x    13 x    25              2405000     100.0%      0.0%      0.0%
 flops    25 x    12 x    12              2426400     100.0%      0.0%      0.0%
 flops    13 x    13 x    25              2501200     100.0%      0.0%      0.0%
 flops    13 x    12 x    12              2523456     100.0%      0.0%      0.0%
 flops    13 x    13 x     5              2845960     100.0%      0.0%      0.0%
 flops     5 x    13 x    13              3417180     100.0%      0.0%      0.0%
 flops    25 x    12 x    13              4477200     100.0%      0.0%      0.0%
 flops    13 x    12 x    13              4656288     100.0%      0.0%      0.0%
 flops    25 x    13 x    13              7681050     100.0%      0.0%      0.0%
 flops    13 x    13 x    13             14306864     100.0%      0.0%      0.0%
 flops inhomo. stacks                    14748000     100.0%      0.0%      0.0%
 flops total                        89.766846E+06     100.0%      0.0%      0.0%
 flops max/rank                     44.793910E+06     100.0%      0.0%      0.0%
 matmuls inhomo. stacks                      1920     100.0%      0.0%      0.0%
 matmuls total                              23763     100.0%      0.0%      0.0%
 number of processed stacks                 23763     100.0%      0.0%      0.0%
 average stack size                                     1.0       0.0       0.0
 marketing flops                    94.443696E+06
 -------------------------------------------------------------------------------
 # multiplications                           3255
 max memory usage/rank             232.230912E+06
 # max total images/rank                        1
 # max 3D layers                                1
 # MPI messages exchanged                 1913940
 MPI messages size (bytes):
  total size                       222.551280E+06
  min size                           0.000000E+00
  max size                           5.000000E+03
  average size                     116.279129E+00
 MPI breakdown and total messages size (bytes):
             size <=      128             1730040                        0
       128 < size <=     8192              183900                222551280
      8192 < size <=    32768                   0                        0
     32768 < size <=   131072                   0                        0
    131072 < size <=  4194304                   0                        0
   4194304 < size <= 16777216                   0                        0
  16777216 < size                               0                        0
 -------------------------------------------------------------------------------
 
 MEMORY| Estimated peak process memory [MiB]                                 222

 -------------------------------------------------------------------------------
 ----                             MULTIGRID INFO                            ----
 -------------------------------------------------------------------------------
 count for grid        1:         798906          cutoff [a.u.]          200.00
 count for grid        2:         275649          cutoff [a.u.]           66.67
 count for grid        3:         188219          cutoff [a.u.]           22.22
 count for grid        4:          71567          cutoff [a.u.]            7.41
 total gridlevel count  :        1334341

 -------------------------------------------------------------------------------
 -                                                                             -
 -                         MESSAGE PASSING PERFORMANCE                         -
 -                                                                             -
 -------------------------------------------------------------------------------

 ROUTINE             CALLS      AVE VOLUME [Bytes]
 MP_Group              172
 MP_Bcast             2625                 210744.
 MP_Allreduce        14319                     74.
 MP_Sync               124
 MP_Alltoall         13462                1023921.
 MP_ISendRecv        25920                  37952.
 MP_Wait            293822
 MP_comm_split         120
 MP_ISend           121961                  31577.
 MP_IRecv           121961                  31464.
 MP_Recv                44                    976.
 MP_Memory          127620
 -------------------------------------------------------------------------------


 -------------------------------------------------------------------------------
 -                                                                             -
 -                           R E F E R E N C E S                               -
 -                                                                             -
 -------------------------------------------------------------------------------
 
 CP2K version 5.1, the CP2K developers group (2017).
 CP2K is freely available from https://www.cp2k.org/ .

 Schuett, Ole; Messmer, Peter; Hutter, Juerg; VandeVondele, Joost. 
 Electronic Structure Calculations on Graphics Processing Units, John Wiley & Sons, Ltd, 173-190 (2016). 
 GPU-Accelerated Sparse Matrix-Matrix Multiplication for Linear Scaling Density Functional Theory.
 http://dx.doi.org/10.1002/9781118670712.ch8


 Borstnik, U; VandeVondele, J; Weber, V; Hutter, J. 
 PARALLEL COMPUTING, 40 (5-6), 47-58 (2014). 
 Sparse matrix multiplication: The distributed block-compressed sparse
 row library.
 http://dx.doi.org/10.1016/j.parco.2014.03.012


 Hutter, J; Iannuzzi, M; Schiffmann, F; VandeVondele, J. 
 WILEY INTERDISCIPLINARY REVIEWS-COMPUTATIONAL MOLECULAR SCIENCE, 4 (1), 15-25 (2014). 
 CP2K: atomistic simulations of condensed matter systems.
 http://dx.doi.org/10.1002/wcms.1159


 Grimme, S; Ehrlich, S; Goerigk, L. 
 JOURNAL OF COMPUTATIONAL CHEMISTRY, 32, 1456 (2011). 
 Effect of the damping function in dispersion corrected density functional theory.
 http://dx.doi.org/10.1002/jcc.21759


 Grimme, S; Antony, J; Ehrlich, S; Krieg, H. 
 JOURNAL OF CHEMICAL PHYSICS, 132 (15), 154104 (2010). 
 A consistent and accurate ab initio parametrization of density
 functional dispersion correction (DFT-D) for the 94 elements H-Pu.
 http://dx.doi.org/10.1063/1.3382344


 VandeVondele, J; Hutter, J. 
 JOURNAL OF CHEMICAL PHYSICS, 127 (11), 114105 (2007). 
 Gaussian basis sets for accurate calculations on molecular systems in
 gas and condensed phases.
 http://dx.doi.org/10.1063/1.2770708


 Krack, M. 
 THEORETICAL CHEMISTRY ACCOUNTS, 114 (1-3), 145-152 (2005). 
 Pseudopotentials for H to Kr optimized for gradient-corrected
 exchange-correlation functionals.
 http://dx.doi.org/10.1007/s00214-005-0655-y


 VandeVondele, J; Krack, M; Mohamed, F; Parrinello, M; Chassaing, T;
 Hutter, J. COMPUTER PHYSICS COMMUNICATIONS, 167 (2), 103-128 (2005). 
 QUICKSTEP: Fast and accurate density functional calculations using a
 mixed Gaussian and plane waves approach.
 http://dx.doi.org/10.1016/j.cpc.2004.12.014


 Frigo, M; Johnson, SG. 
 PROCEEDINGS OF THE IEEE, 93 (2), 216-231 (2005). 
 The design and implementation of FFTW3.
 http://dx.doi.org/10.1109/JPROC.2004.840301


 VandeVondele, J; Hutter, J. 
 JOURNAL OF CHEMICAL PHYSICS, 118 (10), 4365-4369 (2003). 
 An efficient orbital transformation method for electronic structure
 calculations.
 http://dx.doi.org/10.1063/1.1543154


 Hartwigsen, C; Goedecker, S; Hutter, J. 
 PHYSICAL REVIEW B, 58 (7), 3641-3662 (1998). 
 Relativistic separable dual-space Gaussian pseudopotentials from H to Rn.
 http://dx.doi.org/10.1103/PhysRevB.58.3641


 Lippert, G; Hutter, J; Parrinello, M. 
 MOLECULAR PHYSICS, 92 (3), 477-487 (1997). 
 A hybrid Gaussian and plane wave density functional scheme.
 http://dx.doi.org/10.1080/002689797170220


 Perdew, JP; Burke, K; Ernzerhof, M. 
 PHYSICAL REVIEW LETTERS, 77 (18), 3865-3868 (1996). 
 Generalized gradient approximation made simple.
 http://dx.doi.org/10.1103/PhysRevLett.77.3865


 Goedecker, S; Teter, M; Hutter, J. 
 PHYSICAL REVIEW B, 54 (3), 1703-1710 (1996). 
 Separable dual-space Gaussian pseudopotentials.
 http://dx.doi.org/10.1103/PhysRevB.54.1703


 -------------------------------------------------------------------------------
 -                                                                             -
 -                                T I M I N G                                  -
 -                                                                             -
 -------------------------------------------------------------------------------
 SUBROUTINE                       CALLS  ASD         SELF TIME        TOTAL TIME
                                MAXIMUM       AVERAGE  MAXIMUM  AVERAGE  MAXIMUM
 CP2K                                 1  1.0    0.100    0.177   47.663   47.668
 qs_energies                          1  2.0    0.013    0.028   46.743   46.751
 scf_env_do_scf                       1  3.0    0.000    0.003   46.026   46.026
 scf_env_do_scf_inner_loop           67  4.0    0.005    0.010   44.867   44.869
 qs_ks_update_qs_env                 69  5.0    0.002    0.003   31.622   31.627
 rebuild_ks_matrix                   67  6.0    0.000    0.000   31.615   31.621
 qs_ks_build_kohn_sham_matrix        67  7.0    0.020    0.030   31.615   31.621
 pw_transfer                       2356  9.7    0.136    0.194   25.653   27.127
 fft_wrap_pw1pw2                   2222 10.7    0.016    0.021   25.405   26.885
 fft_wrap_pw1pw2_200               1412 11.9    1.545    1.722   24.390   25.852
 fft3d_ps                          2222 12.7   10.943   11.638   20.980   23.027
 qs_vxc_create                       67  8.0    0.003    0.008   20.907   21.095
 xc_vxc_pw_create                    67  9.0    0.438    0.457   20.905   21.089
 mp_alltoall_z22v                  2222 14.7    7.769   12.478    7.769   12.478
 qs_rho_update_rho                   68  5.0    0.001    0.001   11.325   11.328
 calculate_rho_elec                 136  6.0    0.178    0.788   11.324   11.327
 rs_pw_transfer                    1081  9.5    0.009    0.011   10.521   10.599
 xc_rho_set_and_dset_create          67 10.0    0.206    0.220    9.551   10.591
 density_rs2pw                      136  7.0    0.006    0.007   10.364   10.523
 sum_up_and_integrate                67  8.0    0.142    0.155    8.817    8.823
 integrate_v_rspace                 134  9.0    0.069    0.539    8.675    8.702
 potential_pw2rs                    134 10.0    0.012    0.013    8.111    8.137
 yz_to_x                            945 13.3    0.900    0.987    5.154    7.893
 x_to_yz                           1007 14.3    1.270    1.374    4.776    6.066
 rs_pw_transfer_RS2PW_200           137  9.0    2.281    2.538    3.705    3.889
 rs_pw_transfer_PW2RS_200           134 12.0    2.213    2.540    3.573    3.847
 mp_waitany                       30837 11.5    2.951    3.615    2.951    3.615
 qs_scf_new_mos                      67  5.0    0.000    0.000    3.052    3.056
 qs_scf_loop_do_ot                   67  6.0    0.001    0.005    3.051    3.055
 ot_scf_mini                         67  7.0    0.003    0.008    2.941    2.945
 xc_functional_eval                  67 11.0    0.000    0.001    1.540    2.582
 pbe_lsd_eval                        67 12.0    1.539    2.581    1.539    2.581
 dbcsr_multiply_generic            3255 10.2    0.088    0.099    2.453    2.476
 ot_mini                             67  8.0    0.003    0.006    1.752    1.756
 pw_gather_p                       1081 12.1    1.527    1.636    1.527    1.636
 qs_ot_get_derivative               134  9.0    0.001    0.001    1.456    1.462
 pw_scatter_p                      1141 13.3    1.278    1.362    1.278    1.362
 rs_pw_transfer_PW2RS_70            134 12.0    0.503    0.585    1.085    1.273
 pw_derive                          804 10.5    1.095    1.208    1.095    1.208
 init_scf_loop                        2  4.0    0.002    0.005    1.156    1.157
 rs_grid_zero                       813  9.0    1.038    1.113    1.038    1.113
 mp_waitall_1                    262985 13.5    0.872    1.056    0.872    1.056
 mp_sum_d                          3917  9.9    0.375    1.047    0.375    1.047
 multiply_cannon                   3255 11.2    0.242    0.302    0.892    1.003
 rs_pw_transfer_RS2PW_70            136  9.0    0.539    0.637    0.883    0.970
 -------------------------------------------------------------------------------

 The number of warnings for this run is : 0
 
 -------------------------------------------------------------------------------
  **** **** ******  **  PROGRAM ENDED AT                 2018-10-09 08:26:15.067
 ***** ** ***  *** **   PROGRAM RAN ON                                      g013
 **    ****   ******    PROGRAM RAN BY                                     macer
 ***** **    ** ** **   PROGRAM PROCESS ID                                 30260
  **** **  *******  **  PROGRAM STOPPED IN     /home/macer/CuOH2_CO2_folder/3_cu
